<LesHouchesEvents version="1.0">
<!--
File generated with PYTHIA 6.427
-->
<init>
    2212    2212  4.000000E+03  4.000000E+03     0     0     7     7     3    71
  4.684423E-04  2.704553E-04  1.000000E+00   217
  0.000000E+00  0.000000E+00  1.000000E+00   218
  0.000000E+00  0.000000E+00  1.000000E+00   219
  7.080162E-05  7.080162E-05  1.000000E+00   220
  0.000000E+00  0.000000E+00  1.000000E+00   221
  0.000000E+00  0.000000E+00  1.000000E+00   222
  0.000000E+00  0.000000E+00  1.000000E+00   223
  0.000000E+00  0.000000E+00  1.000000E+00   224
  0.000000E+00  0.000000E+00  1.000000E+00   225
  5.914672E-02  4.483901E-03  1.000000E+00   226
  4.457634E-06  4.457634E-06  1.000000E+00   227
  0.000000E+00  0.000000E+00  1.000000E+00   228
  3.357572E-04  3.357572E-04  1.000000E+00   229
  9.361744E-02  5.655637E-03  1.000000E+00   230
  0.000000E+00  0.000000E+00  1.000000E+00   231
  0.000000E+00  0.000000E+00  1.000000E+00   232
  0.000000E+00  0.000000E+00  1.000000E+00   233
  0.000000E+00  0.000000E+00  1.000000E+00   234
  2.585715E-04  2.585715E-04  1.000000E+00   235
  4.302961E-04  4.302961E-04  1.000000E+00   236
  2.538052E-03  1.036155E-03  1.000000E+00   237
  2.649050E-03  8.830166E-04  1.000000E+00   238
  0.000000E+00  0.000000E+00  1.000000E+00   239
  0.000000E+00  0.000000E+00  1.000000E+00   240
  5.142340E-03  1.285585E-03  1.000000E+00   241
  1.248703E-07  1.248703E-07  1.000000E+00   242
  2.101741E-03  7.430775E-04  1.000000E+00   243
  1.258724E-02  1.897598E-03  1.000000E+00   244
  1.312548E-04  1.312548E-04  1.000000E+00   246
  1.992330E-03  6.641099E-04  1.000000E+00   247
  2.815138E-03  1.064022E-03  1.000000E+00   248
  0.000000E+00  0.000000E+00  1.000000E+00   249
  0.000000E+00  0.000000E+00  1.000000E+00   250
  0.000000E+00  0.000000E+00  1.000000E+00   251
  1.779229E-11  1.779229E-11  1.000000E+00   252
  0.000000E+00  0.000000E+00  1.000000E+00   253
  5.054790E-03  1.598465E-03  1.000000E+00   254
  5.417107E-07  5.417107E-07  1.000000E+00   256
  4.513917E-02  4.037370E-03  1.000000E+00   258
  4.539902E-02  3.921878E-03  1.000000E+00   259
  2.613681E-04  2.613681E-04  1.000000E+00   261
  0.000000E+00  0.000000E+00  1.000000E+00   262
  0.000000E+00  0.000000E+00  1.000000E+00   263
  2.397681E-04  1.695417E-04  1.000000E+00   264
  0.000000E+00  0.000000E+00  1.000000E+00   265
  1.872231E-02  2.596318E-03  1.000000E+00   271
  2.037700E-02  2.772959E-03  1.000000E+00   272
  1.658276E-02  2.763793E-03  1.000000E+00   273
  0.000000E+00  0.000000E+00  1.000000E+00   274
  1.537872E-03  7.689358E-04  1.000000E+00   275
  6.535867E-03  1.362823E-03  1.000000E+00   276
  4.712748E-04  4.712748E-04  1.000000E+00   277
  7.655462E-06  7.655462E-06  1.000000E+00   278
  6.157232E-04  4.353820E-04  1.000000E+00   279
  3.446217E-04  3.446217E-04  1.000000E+00   280
  2.091009E-06  2.091009E-06  1.000000E+00   281
  2.793735E-08  2.793735E-08  1.000000E+00   282
  5.485535E-05  5.485535E-05  1.000000E+00   283
  3.390983E-05  3.390983E-05  1.000000E+00   284
  2.317058E-07  2.317058E-07  1.000000E+00   285
  5.633260E-05  5.633260E-05  1.000000E+00   286
  1.853263E-04  1.853263E-04  1.000000E+00   287
  0.000000E+00  0.000000E+00  1.000000E+00   288
  5.118275E-05  5.118275E-05  1.000000E+00   289
  0.000000E+00  0.000000E+00  1.000000E+00   290
  0.000000E+00  0.000000E+00  1.000000E+00   291
  0.000000E+00  0.000000E+00  1.000000E+00   292
  0.000000E+00  0.000000E+00  1.000000E+00   293
  0.000000E+00  0.000000E+00  1.000000E+00   294
  4.985854E-06  4.985854E-06  1.000000E+00   295
  0.000000E+00  0.000000E+00  1.000000E+00   296
</init>
<event>
    12   226  1.000000E+00  3.669388E+02  7.886444E-03  1.045959E-01
      -2   -1    0    0    0  101  0.0000000000E+00  0.0000000000E+00  1.3630182735E+02  1.3630182735E+02  0.0000000000E+00 0. 9.
       2   -1    0    0  101    0  0.0000000000E+00  0.0000000000E+00 -1.1058415430E+03  1.1058415430E+03  0.0000000000E+00 0. 9.
-1000024    2    1    2    0    0 -2.4913809123E+02  1.3937784021E+01 -2.8188787397E+02  4.6271465037E+02  2.6903535800E+02 0. 9.
 1000024    2    1    2    0    0  2.4913809123E+02 -1.3937784021E+01 -6.8765184172E+02  7.7942872003E+02  2.6903535800E+02 0. 9.
 1000022    1    3    0    0    0 -2.3455794333E+02 -3.7503750070E+01 -2.0366354953E+02  3.3842855671E+02  1.2896157000E+02 0. 9.
     -24    2    3    0    0    0 -1.4580147898E+01  5.1441534091E+01 -7.8224324434E+01  1.2428609367E+02  8.0431188000E+01 0. 9.
 1000022    1    4    0    0    0  1.2250809103E+02  3.0454556462E+01 -5.1856868433E+02  5.4907219861E+02  1.2896157000E+02 0. 9.
      24    2    4    0    0    0  1.2663000020E+02 -4.4392340483E+01 -1.6908315739E+02  2.3035652142E+02  8.0431188000E+01 0. 9.
       1    1    6    0  102    0 -2.8232001113E+01 -1.2381322264E+01 -3.1045036562E+01  4.3752099641E+01  3.3000000000E-01 0. 9.
      -2    1    6    0    0  102  1.3651853215E+01  6.3822856354E+01 -4.7179287873E+01  8.0533994025E+01  3.3000000000E-01 0. 9.
      -1    1    8    0    0  103 -9.7772813701E-01 -2.7594595021E+01 -3.3424511235E+01  4.3355789440E+01  3.3000000000E-01 0. 9.
       2    1    8    0  103    0  1.2760772834E+02 -1.6797745462E+01 -1.3565864616E+02  1.8700073198E+02  3.3000000000E-01 0. 9.
</event>
<event>
    12   230  1.000000E+00  2.794816E+02  7.862141E-03  1.083611E-01
      -1   -1    0    0    0  101  0.0000000000E+00  0.0000000000E+00  5.0075230483E+02  5.0075230483E+02  0.0000000000E+00 0. 9.
       2   -1    0    0  101    0  0.0000000000E+00  0.0000000000E+00 -1.5989984410E+02  1.5989984410E+02  0.0000000000E+00 0. 9.
 1000023    2    1    2    0    0  3.5157096360E+01  6.7321974060E+01  2.2207064273E+02  3.5691309356E+02  2.6889276000E+02 0. 9.
 1000024    2    1    2    0    0 -3.5157096360E+01 -6.7321974060E+01  1.1878181800E+02  3.0373905537E+02  2.6903535800E+02 0. 9.
 1000022    1    3    0    0    0  5.5587142535E+01  5.1716803330E+01  1.1285265412E+02  1.8743363156E+02  1.2896157000E+02 0. 9.
      25    2    3    0    0    0 -2.0430046176E+01  1.5605170730E+01  1.0921798861E+02  1.6947946200E+02  1.2701893900E+02 0. 9.
 1000022    1    4    0    0    0  5.1919898952E+01 -7.9299295532E+01  7.5691215293E+01  1.7704321729E+02  1.2896157000E+02 0. 9.
      24    2    4    0    0    0 -8.7076995312E+01  1.1977321472E+01  4.3090602707E+01  1.2669583808E+02  8.0431188000E+01 0. 9.
     -15    1    6    0    0    0 -5.1511989970E+01  2.5334607450E+01  1.2168737496E+02  1.3455966112E+02  1.7770000000E+00 0. 9.
      15    1    6    0    0    0  3.1081943794E+01 -9.7294367197E+00 -1.2469386355E+01  3.4919800887E+01  1.7770000000E+00 0. 9.
      -1    1    8    0    0  102 -5.2885837606E+01 -2.4262125365E+01 -3.7550439929E+00  5.8307562133E+01  3.3000000000E-01 0. 9.
       2    1    8    0  102    0 -3.4191157706E+01  3.6239446837E+01  4.6845646700E+01  6.8388275947E+01  3.3000000000E-01 0. 9.
</event>
<event>
    16   271  1.000000E+00  1.079149E+03  7.984232E-03  9.193826E-02
       2   -1    0    0  101    0  0.0000000000E+00  0.0000000000E+00  1.1229105837E+03  1.1229105837E+03  0.0000000000E+00 0. 9.
       2   -1    0    0  102    0  0.0000000000E+00  0.0000000000E+00 -1.0390778345E+03  1.0390778345E+03  0.0000000000E+00 0. 9.
 1000002    2    1    2  101    0 -2.9111643235E+01 -4.2500535867E+02 -5.3385504379E+00  1.0791618634E+03  9.9150632100E+02 0. 9.
 1000002    2    1    2  102    0  2.9111643235E+01  4.2500535867E+02  8.9171299674E+01  1.0828265549E+03  9.9150632100E+02 0. 9.
 1000024    2    3    0    0    0  3.9482569078E+02 -1.2020946077E+02 -1.8607467096E+02  5.2663217485E+02  2.6903535800E+02 0. 9.
       1    1    3    0  101    0 -4.2393733402E+02 -3.0479589790E+02  1.8073612052E+02  5.5252968853E+02  3.3000000000E-01 0. 9.
 1000024    2    4    0    0    0 -2.0998904562E+02 -7.3021613858E+01 -2.5473007656E+02  4.3208215785E+02  2.6903535800E+02 0. 9.
       1    1    4    0  102    0  2.3910068886E+02  4.9802697253E+02  3.4390137624E+02  6.5074439702E+02  3.3000000000E-01 0. 9.
 1000022    1    5    0    0    0  3.6651507416E+02 -8.6913839398E+01 -1.7323022101E+02  4.3419708782E+02  1.2896157000E+02 0. 9.
      24    2    5    0    0    0  2.8310616624E+01 -3.3295621372E+01 -1.2844449943E+01  9.2435087026E+01  8.0431188000E+01 0. 9.
 1000022    1    7    0    0    0 -1.8941447911E+01 -3.7803668881E+00 -9.9162911579E+01  1.6382136366E+02  1.2896157000E+02 0. 9.
      24    2    7    0    0    0 -1.9104759771E+02 -6.9241246970E+01 -1.5556716499E+02  2.6826079419E+02  8.0431188000E+01 0. 9.
     -11    1   10    0    0    0  7.4374281627E-01 -5.2478914559E+01  7.7284057431E+00  5.3050144979E+01  5.1000000000E-04 0. 9.
      12    1   10    0    0    0  2.7566873808E+01  1.9183293187E+01 -2.0572855686E+01  3.9384942048E+01  0.0000000000E+00 0. 9.
     -15    1   12    0    0    0 -8.6439182566E+01 -1.7073216880E+01 -2.2129975050E+01  9.0863196851E+01  1.7770000000E+00 0. 9.
      16    1   12    0    0    0 -1.0460841515E+02 -5.2168030090E+01 -1.3343718994E+02  1.7739759734E+02  0.0000000000E+00 0. 9.
</event>
<event>
    20   259  1.000000E+00  9.346504E+02  7.971061E-03  9.344523E-02
       2   -1    0    0  101    0  0.0000000000E+00  0.0000000000E+00  2.5270181634E+03  2.5270181634E+03  0.0000000000E+00 0. 9.
      21   -1    0    0  102  101  0.0000000000E+00  0.0000000000E+00 -3.4692853246E+02  3.4692853246E+02  0.0000000000E+00 0. 9.
 2000002    2    1    2  103    0  3.9281657026E+00 -8.9867336600E+01  1.2916690607E+03  1.6306975471E+03  9.9129912700E+02 0. 9.
 1000021    2    1    2  102  103 -3.9281657026E+00  8.9867336600E+01  8.8842057021E+02  1.2432491487E+03  8.6503512500E+02 0. 9.
 1000021    2    3    0  103  104 -9.4775764605E+01 -1.4483056557E+02  1.1340659458E+03  1.4367844915E+03  8.6503512500E+02 0. 9.
       2    1    3    0  104    0  9.8703930308E+01  5.4963228965E+01  1.5760311493E+02  1.9391305560E+02  3.3000000000E-01 0. 9.
-1000024    2    4    0    0    0 -6.8204695782E+01  2.6962252720E+02  5.4552489971E+02  6.6882406338E+02  2.6903535800E+02 0. 9.
       4    1    4    0  102    0  1.4916727232E+02 -2.7715788584E+02  1.6740983779E+02  3.5650480025E+02  1.5000000000E+00 0. 9.
      -3    1    4    0    0  103 -8.4890742244E+01  9.7402695241E+01  1.7548583271E+02  2.1792028506E+02  5.0000000000E-01 0. 9.
 1000024    2    5    0    0    0 -2.2119633832E+02  1.1518606702E+02  3.3351276184E+02  4.9578870125E+02  2.6903535800E+02 0. 9.
      -2    1    5    0    0  104  8.8335904253E+01  3.6341931015E+01  1.0218437482E+01  9.6065047206E+01  3.3000000000E-01 0. 9.
       1    1    5    0  103    0  3.8084669459E+01 -2.9635856360E+02  7.9033474645E+02  8.4493074308E+02  3.3000000000E-01 0. 9.
 1000022    1    7    0    0    0  3.3906587487E+01  1.8575873957E+02  2.7979147123E+02  3.6134515343E+02  1.2896157000E+02 0. 9.
     -24    2    7    0    0    0 -1.0211128327E+02  8.3863787629E+01  2.6573342849E+02  3.0747890995E+02  8.0431188000E+01 0. 9.
 1000022    1   10    0    0    0 -5.0029786340E+01  4.5580519622E+01  2.2188276998E+02  2.6541215767E+02  1.2896157000E+02 0. 9.
      24    2   10    0    0    0 -1.7116655198E+02  6.9605547395E+01  1.1162999187E+02  2.3037654358E+02  8.0431188000E+01 0. 9.
       3    1   14    0  105    0 -8.6246229799E+01  3.8639382330E+01  2.2683508429E+02  2.4573526301E+02  5.0000000000E-01 0. 9.
      -4    1   14    0    0  105 -1.5865053470E+01  4.5224405299E+01  3.8898344191E+01  6.1743646937E+01  1.5000000000E+00 0. 9.
      -1    1   16    0    0  106 -1.2013671006E+02  8.2557281266E+01  6.3341234731E+01  1.5893632282E+02  3.3000000000E-01 0. 9.
       2    1   16    0  106    0 -5.1029841917E+01 -1.2951733871E+01  4.8288757137E+01  7.1440220760E+01  3.3000000000E-01 0. 9.
</event>
<event>
    12   230  1.000000E+00  2.830312E+02  7.863265E-03  1.081806E-01
       1   -1    0    0  101    0  0.0000000000E+00  0.0000000000E+00  8.1402749941E+02  8.1402749941E+02  0.0000000000E+00 0. 9.
      -2   -1    0    0    0  101  0.0000000000E+00  0.0000000000E+00 -9.8414694035E+01  9.8414694035E+01  0.0000000000E+00 0. 9.
 1000023    2    1    2    0    0 -9.5103132109E+00  8.7604522718E+01  3.6153622228E+02  4.5910429628E+02  2.6889276000E+02 0. 9.
-1000024    2    1    2    0    0  9.5103132109E+00 -8.7604522718E+01  3.5407658309E+02  4.5333789716E+02  2.6903535800E+02 0. 9.
 1000022    1    3    0    0    0  2.5032755433E+01  2.4437036046E+01  2.0806906450E+02  2.4728046772E+02  1.2896157000E+02 0. 9.
      25    2    3    0    0    0 -3.4543068644E+01  6.3167486672E+01  1.5346715778E+02  2.1182382856E+02  1.2701893900E+02 0. 9.
 1000022    1    4    0    0    0  6.8915805807E+01 -3.8402652624E+01  2.8389659975E+02  3.2164035491E+02  1.2896157000E+02 0. 9.
     -24    2    4    0    0    0 -5.9405492596E+01 -4.9201870094E+01  7.0179983337E+01  1.3169754225E+02  8.0431188000E+01 0. 9.
       5    1    6    0  102    0  1.6310121565E+00  6.1365396018E+01  1.6285045756E+02  1.7410250876E+02  4.8000000000E+00 0. 9.
      -5    1    6    0    0  102 -3.6174080800E+01  1.8020906543E+00 -9.3832997816E+00  3.7721319797E+01  4.8000000000E+00 0. 9.
      11    1    8    0    0    0  9.2977670381E+00  1.1829663355E+01 -1.5426987054E+00  1.5125122364E+01  5.1000000000E-04 0. 9.
     -12    1    8    0    0    0 -6.8703259635E+01 -6.1031533449E+01  7.1722682042E+01  1.1657241989E+02  0.0000000000E+00 0. 9.
</event>
<event>
    12   230  1.000000E+00  4.706893E+02  7.908803E-03  1.013742E-01
       2   -1    0    0  101    0  0.0000000000E+00  0.0000000000E+00  1.4590046409E+03  1.4590046409E+03  0.0000000000E+00 0. 9.
      -1   -1    0    0    0  101  0.0000000000E+00  0.0000000000E+00 -1.5280062246E+02  1.5280062246E+02  0.0000000000E+00 0. 9.
 1000024    2    1    2    0    0 -1.9600482176E+02 -3.3284957942E+02  5.8955901002E+02  7.5443129762E+02  2.6903535800E+02 0. 9.
 1000023    2    1    2    0    0  1.9600482176E+02  3.3284957942E+02  7.1664500842E+02  8.5737396575E+02  2.6889276000E+02 0. 9.
 1000022    1    3    0    0    0 -2.0245617194E+02 -1.8833020713E+02  3.7446414733E+02  4.8302303531E+02  1.2896157000E+02 0. 9.
      24    2    3    0    0    0  6.4513501775E+00 -1.4451937229E+02  2.1509486269E+02  2.7140826230E+02  8.0431188000E+01 0. 9.
 1000022    1    4    0    0    0  9.4183257026E+01  1.6455990814E+02  4.2938569725E+02  4.8677881302E+02  1.2896157000E+02 0. 9.
      25    2    4    0    0    0  1.0182156473E+02  1.6828967129E+02  2.8725931117E+02  3.7059515273E+02  1.2701893900E+02 0. 9.
      -1    1    6    0    0  102 -3.6956723769E+01 -7.3836051383E+01  1.0675443163E+02  1.3495991808E+02  3.3000000000E-01 0. 9.
       2    1    6    0  102    0  4.3408073946E+01 -7.0683320910E+01  1.0834043106E+02  1.3644834422E+02  3.3000000000E-01 0. 9.
       5    1    8    0  103    0 -2.7916448904E+01  1.1827230320E+01  3.3547070516E+01  4.5471501368E+01  4.8000000000E+00 0. 9.
      -5    1    8    0    0  103  1.2973801364E+02  1.5646244097E+02  2.5371224066E+02  3.2512365136E+02  4.8000000000E+00 0. 9.
</event>
<event>
    20   258  1.000000E+00  9.651780E+02  7.974002E-03  9.310403E-02
       2   -1    0    0  101    0  0.0000000000E+00  0.0000000000E+00  1.4332674771E+03  1.4332674771E+03  0.0000000000E+00 0. 9.
      21   -1    0    0  102  101  0.0000000000E+00  0.0000000000E+00 -6.6142262261E+02  6.6142262261E+02  0.0000000000E+00 0. 9.
 1000002    2    1    2  103    0  2.4609851122E+02  7.2930322363E+01  5.6217826148E+02  1.1683374904E+03  9.9150632100E+02 0. 9.
 1000021    2    1    2  102  103 -2.4609851122E+02 -7.2930322363E+01  2.0966659302E+02  9.2635260935E+02  8.6503512500E+02 0. 9.
 1000021    2    3    0  103  104  2.2002940947E+02  1.2818415395E+02  3.8421515530E+02  9.8017915271E+02  8.6503512500E+02 0. 9.
       2    1    3    0  104    0  2.6069101754E+01 -5.5253831588E+01  1.7796310618E+02  1.8815833767E+02  3.3000000000E-01 0. 9.
 1000024    2    4    0    0    0 -1.4935305806E+02 -3.5330272011E+02 -9.7906114349E+01  4.7863846384E+02  2.6903535800E+02 0. 9.
      -2    1    4    0    0  103  3.2184661920E+01  7.7436978150E+01  6.4240834905E+01  1.0563773860E+02  3.3000000000E-01 0. 9.
       1    1    4    0  102    0 -1.2893011509E+02  2.0293541960E+02  2.4333187247E+02  3.4207640691E+02  3.3000000000E-01 0. 9.
 1000023    2    5    0    0    0  4.7099708780E+00 -1.6372356562E+02 -1.0382018191E+02  3.3152607185E+02  2.6889276000E+02 0. 9.
       2    1    5    0  103    0 -4.1219724339E+01  9.4403237075E+00  2.6910426535E+01  5.0124498427E+01  3.3000000000E-01 0. 9.
      -2    1    5    0    0  104  2.5653916293E+02  2.8246739586E+02  4.6112491068E+02  5.9852858243E+02  3.3000000000E-01 0. 9.
 1000022    1    7    0    0    0 -9.4909681928E+01 -1.0582402455E+02  8.8842592409E+00  1.9213690040E+02  1.2896157000E+02 0. 9.
      24    2    7    0    0    0 -5.4443376128E+01 -2.4747869557E+02 -1.0679037359E+02  2.8650156345E+02  8.0431188000E+01 0. 9.
 1000022    1   10    0    0    0 -2.9328919158E+01 -5.6232548418E+01 -6.2583312046E+01  1.5674834125E+02  1.2896157000E+02 0. 9.
      25    2   10    0    0    0  3.4038890036E+01 -1.0749101720E+02 -4.1236869864E+01  1.7477773060E+02  1.2701893900E+02 0. 9.
      -3    1   14    0    0  105  5.6400366939E+00 -1.1854085808E+02 -2.1418873265E+01  1.2059337950E+02  5.0000000000E-01 0. 9.
       4    1   14    0  105    0 -6.0083412822E+01 -1.2893783749E+02 -8.5371500325E+01  1.6590818395E+02  1.5000000000E+00 0. 9.
      21    1   16    0  106  107 -2.0118944320E+01  2.1713594005E+01 -9.9654675199E+00  3.1233997952E+01  0.0000000000E+00 0. 9.
      21    1   16    0  107  106  5.4157834356E+01 -1.2920461120E+02 -3.1271402344E+01  1.4354373265E+02  0.0000000000E+00 0. 9.
</event>
<event>
    28   258  1.000000E+00  9.743474E+02  7.974867E-03  9.300413E-02
       1   -1    0    0  101    0  0.0000000000E+00  0.0000000000E+00  1.0495065403E+03  1.0495065403E+03  0.0000000000E+00 0. 9.
      21   -1    0    0  102  101  0.0000000000E+00  0.0000000000E+00 -9.0993338281E+02  9.0993338281E+02  0.0000000000E+00 0. 9.
 1000001    2    1    2  103    0 -2.8094790799E+02 -4.4078914021E+01 -2.3073906735E+01  1.0344455920E+03  9.9431916400E+02 0. 9.
 1000021    2    1    2  102  103  2.8094790799E+02  4.4078914021E+01  1.6264706422E+02  9.2499433114E+02  8.6503512500E+02 0. 9.
 1000021    2    3    0  103  104 -2.4412745037E+02  8.1721907537E+01 -3.1654298081E+01  9.0308606692E+02  8.6503512500E+02 0. 9.
       1    1    3    0  104    0 -3.6820457619E+01 -1.2580082156E+02  8.5803913460E+00  1.3135952504E+02  3.3000000000E-01 0. 9.
 1000023    2    4    0    0    0  1.0591896659E+02 -2.2744777960E+02  1.0264367078E+02  3.8182503776E+02  2.6889276000E+02 0. 9.
       6    2    4    0  102    0  6.0617680312E+01  4.2784874940E+01 -7.9166240610E+01  2.0437852711E+02  1.7320000000E+02 0. 9.
      -6    2    4    0    0  103  1.1441126109E+02  2.2874181868E+02  1.3916963406E+02  3.3879076628E+02  1.7320000000E+02 0. 9.
 1000024    2    5    0    0    0 -1.5043188178E+02  4.2981425568E+02 -1.3716844101E+01  5.2909188343E+02  2.6903535800E+02 0. 9.
      -2    1    5    0    0  104 -1.0973673790E+02 -2.3962489985E+02 -5.1923724581E+00  2.6360825842E+02  3.3000000000E-01 0. 9.
       1    1    5    0  103    0  1.6041169305E+01 -1.0846744829E+02 -1.2745081522E+01  1.1038592507E+02  3.3000000000E-01 0. 9.
 1000022    1    7    0    0    0  5.5398557869E+01 -1.6412793182E+02  4.5489952802E+01  2.2069753184E+02  1.2896157000E+02 0. 9.
      25    2    7    0    0    0  5.0520408724E+01 -6.3319847775E+01  5.7153717973E+01  1.6112750592E+02  1.2701893900E+02 0. 9.
      24    2    8    0    0    0  5.5433616846E+01  5.3345222779E-01  1.6953301173E+01  9.9145150520E+01  8.0431188000E+01 0. 9.
       5    1    8    0  102    0  5.1840634660E+00  4.2251422712E+01 -9.6119541783E+01  1.0523337659E+02  4.8000000000E+00 0. 9.
     -24    2    9    0    0    0  1.4290938763E+02  1.8062863733E+02  1.4255859090E+02  2.8256313549E+02  8.0431188000E+01 0. 9.
      -5    1    9    0    0  103 -2.8498126544E+01  4.8113181343E+01 -3.3889568453E+00  5.6227630787E+01  4.8000000000E+00 0. 9.
 1000022    1   10    0    0    0 -9.8229399312E+01  3.6299892862E+02 -6.2524857176E+01  4.0243966178E+02  1.2896157000E+02 0. 9.
      24    2   10    0    0    0 -5.2202482466E+01  6.6815327063E+01  4.8808013075E+01  1.2665222165E+02  8.0431188000E+01 0. 9.
       5    1   14    0  105    0  1.5842395126E+01 -8.4961987543E+01 -4.8628309649E+00  8.6696066436E+01  4.8000000000E+00 0. 9.
      -5    1   14    0    0  105  3.4678013598E+01  2.1642139768E+01  6.2016548938E+01  7.4431439479E+01  4.8000000000E+00 0. 9.
      -3    1   15    0    0  106 -7.6343363632E+00  2.3088625785E+01 -1.0818336558E+01  2.6620558563E+01  5.0000000000E-01 0. 9.
       4    1   15    0  106    0  6.3067953209E+01 -2.2555173557E+01  2.7771637732E+01  7.2524591957E+01  1.5000000000E+00 0. 9.
       1    1   17    0  107    0  1.3876501327E+02  1.8088701266E+02  1.5078994504E+02  2.7333780690E+02  3.3000000000E-01 0. 9.
      -2    1   17    0    0  107  4.1443743613E+00 -2.5837533152E-01 -8.2313541379E+00  9.2253285904E+00  3.3000000000E-01 0. 9.
      -3    1   20    0    0  108 -6.6170547978E+01  2.6389581985E+01  4.3639605685E+01  8.3544099979E+01  5.0000000000E-01 0. 9.
       4    1   20    0  108    0  1.3968065512E+01  4.0425745078E+01  5.1684073902E+00  4.3108121673E+01  1.5000000000E+00 0. 9.
</event>
<event>
    18   244  1.000000E+00  1.046152E+03  7.981383E-03  9.225966E-02
      21   -1    0    0  101  102  0.0000000000E+00  0.0000000000E+00  1.1761186457E+03  1.1761186457E+03  0.0000000000E+00 0. 9.
      21   -1    0    0  102  103  0.0000000000E+00  0.0000000000E+00 -9.6429768966E+02  9.6429768966E+02  0.0000000000E+00 0. 9.
 1000021    2    1    2  101  104 -2.7708866135E+02  5.1900939741E+02  3.0612644643E+02  1.0900220408E+03  8.6503512500E+02 0. 9.
 1000021    2    1    2  104  103  2.7708866135E+02 -5.1900939741E+02 -9.4305490422E+01  1.0503942945E+03  8.6503512500E+02 0. 9.
 1000024    2    3    0    0    0 -3.3735159645E+02  4.1387625831E+02  5.5072922645E+02  8.1288520810E+02  2.6903535800E+02 0. 9.
      -4    1    3    0    0  104 -6.0356800690E-01  3.4044460249E+01 -4.2989137802E+01  5.4860783233E+01  1.5000000000E+00 0. 9.
       3    1    3    0  101    0  6.0866503108E+01  7.1088678854E+01 -2.0161364222E+02  2.2227604952E+02  5.0000000000E-01 0. 9.
-1000024    2    4    0    0    0  4.4540542149E+01  1.4666029778E+02 -3.7470462125E+01  3.1189286979E+02  2.6903535800E+02 0. 9.
       4    1    4    0  104    0  1.7401803797E+02 -5.4343180728E+02 -1.2891452987E+02  5.8499710488E+02  1.5000000000E+00 0. 9.
      -3    1    4    0    0  103  5.8530081224E+01 -1.2223788791E+02  7.2079501573E+01  1.5350431980E+02  5.0000000000E-01 0. 9.
 1000022    1    5    0    0    0 -2.6159996633E+02  2.1516715516E+02  4.0166912378E+02  5.4101813147E+02  1.2896157000E+02 0. 9.
      24    2    5    0    0    0 -7.5751630113E+01  1.9870910315E+02  1.4906010267E+02  2.7186707662E+02  8.0431188000E+01 0. 9.
 1000022    1    8    0    0    0  7.1932151092E-01  1.6305271209E+02 -5.9569579569E+01  2.1625523275E+02  1.2896157000E+02 0. 9.
     -24    2    8    0    0    0  4.3821220639E+01 -1.6392414304E+01  2.2099117444E+01  9.5637637047E+01  8.0431188000E+01 0. 9.
     -11    1   12    0    0    0 -2.5023325898E+01  1.5988839280E+01 -1.5013557691E+00  2.9733211901E+01  5.1000000000E-04 0. 9.
      12    1   12    0    0    0 -5.0728304215E+01  1.8272026387E+02  1.5056145844E+02  2.4213386472E+02  0.0000000000E+00 0. 9.
       1    1   14    0  105    0  5.5650752380E+01  1.6455365176E+01  1.5952724396E+01  6.0186240946E+01  3.3000000000E-01 0. 9.
      -2    1   14    0    0  105 -1.1829531742E+01 -3.2847779480E+01  6.1463930481E+00  3.5451396101E+01  3.3000000000E-01 0. 9.
</event>
<event>
    12   276  1.000000E+00  1.010267E+03  7.978183E-03  9.262361E-02
       2   -1    0    0  101    0  0.0000000000E+00  0.0000000000E+00  1.4245586206E+03  1.4245586206E+03  0.0000000000E+00 0. 9.
      -2   -1    0    0    0  101  0.0000000000E+00  0.0000000000E+00 -8.1655893544E+02  8.1655893544E+02  0.0000000000E+00 0. 9.
 1000002    2    1    2  102    0 -1.6600554393E+02  1.0100245718E+02  6.9636115795E+02  1.2270953442E+03  9.9150632100E+02 0. 9.
-2000002    2    1    2    0  102  1.6600554393E+02 -1.0100245718E+02 -8.8361472788E+01  1.0140222118E+03  9.9129912700E+02 0. 9.
 1000023    2    3    0    0    0 -2.6004034018E+01  4.9535112358E+02  2.5590278980E+02  6.1954701164E+02  2.6889276000E+02 0. 9.
       2    1    3    0  102    0 -1.4000150991E+02 -3.9434866641E+02  4.4045836815E+02  6.0754833260E+02  3.3000000000E-01 0. 9.
 1000022    1    4    0    0    0  2.0727150424E+02 -2.7132445651E+02  3.7217319018E+02  5.2126999453E+02  1.2896157000E+02 0. 9.
      -2    1    4    0    0  102 -4.1265960313E+01  1.7032199934E+02 -4.6053466296E+02  4.9275221728E+02  3.3000000000E-01 0. 9.
 1000022    1    5    0    0    0  4.7675297132E+00  2.0703223822E+02  4.1213196386E+01  2.4741602837E+02  1.2896157000E+02 0. 9.
      23    2    5    0    0    0 -3.0771563731E+01  2.8831888537E+02  2.1468959342E+02  3.7213098327E+02  9.1187600000E+01 0. 9.
       1    1   10    0  103    0 -1.4887070725E+01  2.1463739099E+02  2.0309563929E+02  2.9586953558E+02  3.3000000000E-01 0. 9.
      -1    1   10    0    0  103 -1.5884493006E+01  7.3681494378E+01  1.1593954132E+01  7.6261447693E+01  3.3000000000E-01 0. 9.
</event>
<event>
    12   230  1.000000E+00  3.611699E+02  7.885026E-03  1.048078E-01
      -1   -1    0    0    0  101  0.0000000000E+00  0.0000000000E+00  1.0631001367E+02  1.0631001367E+02  0.0000000000E+00 0. 9.
       2   -1    0    0  101    0  0.0000000000E+00  0.0000000000E+00 -1.6901939916E+03  1.6901939916E+03  0.0000000000E+00 0. 9.
 1000023    2    1    2    0    0 -1.7121260245E+02  1.6967103790E+02 -1.2620824022E+03  1.3127289601E+03  2.6889276000E+02 0. 9.
 1000024    2    1    2    0    0  1.7121260245E+02 -1.6967103790E+02 -3.2180157572E+02  4.8377504517E+02  2.6903535800E+02 0. 9.
 1000022    1    3    0    0    0 -5.7305279650E+01  9.6565385054E+01 -5.0254962527E+02  5.3084459220E+02  1.2896157000E+02 0. 9.
      25    2    3    0    0    0 -1.1390732280E+02  7.3105652845E+01 -7.5953277697E+02  7.8188436793E+02  1.2701893900E+02 0. 9.
 1000022    1    4    0    0    0  3.0221157016E+01 -1.4253062845E+02 -1.9998672709E+02  2.7902343258E+02  1.2896157000E+02 0. 9.
      24    2    4    0    0    0  1.4099144543E+02 -2.7140409451E+01 -1.2181484863E+02  2.0475161259E+02  8.0431188000E+01 0. 9.
       5    1    6    0  102    0 -1.5229120114E+01  8.4168478417E+01 -3.2219246787E+02  3.3338759007E+02  4.8000000000E+00 0. 9.
      -5    1    6    0    0  102 -9.8678202682E+01 -1.1062825572E+01 -4.3734030910E+02  4.4849677787E+02  4.8000000000E+00 0. 9.
      -1    1    8    0    0  103  2.0489649562E+01  2.1156434945E+01 -4.5361001740E+00  2.9801100375E+01  3.3000000000E-01 0. 9.
       2    1    8    0  103    0  1.2050179587E+02 -4.8296844396E+01 -1.1727874845E+02  1.7495051222E+02  3.3000000000E-01 0. 9.
</event>
<event>
    12   226  1.000000E+00  4.261451E+02  7.899861E-03  1.026364E-01
       2   -1    0    0  101    0  0.0000000000E+00  0.0000000000E+00  1.2876826445E+03  1.2876826445E+03  0.0000000000E+00 0. 9.
      -2   -1    0    0    0  101  0.0000000000E+00  0.0000000000E+00 -1.7055914081E+02  1.7055914081E+02  0.0000000000E+00 0. 9.
 1000024    2    1    2    0    0 -2.8301869698E+01  3.2926978349E+02  8.6195117121E+02  9.6154013517E+02  2.6903535800E+02 0. 9.
-1000024    2    1    2    0    0  2.8301869698E+01 -3.2926978349E+02  2.5517233251E+02  4.9670165017E+02  2.6903535800E+02 0. 9.
 1000022    1    3    0    0    0 -5.1952254451E+01  1.8464705801E+02  3.2245574719E+02  3.9673967310E+02  1.2896157000E+02 0. 9.
      24    2    3    0    0    0  2.3650384752E+01  1.4462272548E+02  5.3949542402E+02  5.6480046208E+02  8.0431188000E+01 0. 9.
 1000022    1    4    0    0    0  3.1137667348E+01 -1.6388983370E+02  2.2838505006E+02  3.1083797957E+02  1.2896157000E+02 0. 9.
     -24    2    4    0    0    0 -2.8357976496E+00 -1.6537994980E+02  2.6787282442E+01  1.8586367059E+02  8.0431188000E+01 0. 9.
      -1    1    6    0    0  102  1.7032776593E+01 -1.4740578686E+00  1.0421508973E+02  1.0560862727E+02  3.3000000000E-01 0. 9.
       2    1    6    0  102    0  6.6176081594E+00  1.4609678335E+02  4.3528033429E+02  4.5919183481E+02  3.3000000000E-01 0. 9.
       3    1    8    0  103    0  2.6292132952E+01 -9.0739959366E+01  4.3493497883E+01  1.0400457124E+02  5.0000000000E-01 0. 9.
      -4    1    8    0    0  103 -2.9127930602E+01 -7.4639990429E+01 -1.6706215440E+01  8.1859099352E+01  1.5000000000E+00 0. 9.
</event>
<event>
    12   230  1.000000E+00  3.259516E+02  7.875853E-03  1.062013E-01
      -1   -1    0    0    0  101  0.0000000000E+00  0.0000000000E+00  1.0904069035E+02  1.0904069035E+02  0.0000000000E+00 0. 9.
       2   -1    0    0  101    0  0.0000000000E+00  0.0000000000E+00 -9.7774929568E+02  9.7774929568E+02  0.0000000000E+00 0. 9.
 1000023    2    1    2    0    0 -1.7134765924E+02 -6.7399964609E+01 -4.0226380602E+02  5.1770866476E+02  2.6889276000E+02 0. 9.
 1000024    2    1    2    0    0  1.7134765924E+02  6.7399964609E+01 -4.6644479931E+02  5.6908132127E+02  2.6903535800E+02 0. 9.
 1000022    1    3    0    0    0 -1.2326928289E+02 -6.3375436585E+01 -2.5074526152E+02  3.1419108004E+02  1.2896157000E+02 0. 9.
      25    2    3    0    0    0 -4.8078376346E+01 -4.0245280240E+00 -1.5151854450E+02  2.0351758472E+02  1.2701893900E+02 0. 9.
 1000022    1    4    0    0    0  1.8678617259E+02  5.0183987262E+01 -3.9822725239E+02  4.6111119910E+02  1.2896157000E+02 0. 9.
      24    2    4    0    0    0 -1.5438513352E+01  1.7215977347E+01 -6.8217546920E+01  1.0797012217E+02  8.0431188000E+01 0. 9.
       5    1    6    0  102    0 -9.7517241710E+00 -3.2555821062E+01 -1.5166125095E+02  1.5549647151E+02  4.8000000000E+00 0. 9.
      -5    1    6    0    0  102 -3.8326652175E+01  2.8531293038E+01  1.4270645278E-01  4.8021113216E+01  4.8000000000E+00 0. 9.
      -1    1    8    0    0  103  1.0012797309E+00  3.1721387014E+01  4.4656773314E+00  3.2051523041E+01  3.3000000000E-01 0. 9.
       2    1    8    0  103    0 -1.6439793083E+01 -1.4505409667E+01 -7.2683224251E+01  7.5918599129E+01  3.3000000000E-01 0. 9.
</event>
<event>
    17   258  1.000000E+00  1.218893E+03  7.995423E-03  9.069926E-02
      21   -1    0    0  101  102  0.0000000000E+00  0.0000000000E+00  6.9200789403E+02  6.9200789403E+02  0.0000000000E+00 0. 9.
       2   -1    0    0  102    0  0.0000000000E+00  0.0000000000E+00 -2.1607364727E+03  2.1607364727E+03  0.0000000000E+00 0. 9.
 1000021    2    1    2  101  103 -5.5920088371E+02  5.5435552671E+02 -8.3251582617E+02  1.4357520840E+03  8.6503512500E+02 0. 9.
 1000002    2    1    2  103    0  5.5920088371E+02 -5.5435552671E+02 -6.3621275248E+02  1.4169922827E+03  9.9150632100E+02 0. 9.
 1000024    2    3    0    0    0  5.1058520563E+01  1.6074112072E+02 -5.2048505030E+02  6.0969614715E+02  2.6903535800E+02 0. 9.
      -4    1    3    0    0  103 -5.4982241438E+02  4.1984708979E+02 -2.5004841740E+02  7.3559685101E+02  1.5000000000E+00 0. 9.
       3    1    3    0  101    0 -6.0436989888E+01 -2.6232683800E+01 -6.1982358471E+01  9.0459085822E+01  5.0000000000E-01 0. 9.
 1000024    2    4    0    0    0 -6.5895202489E+01  1.4495401166E+02 -6.6680213162E+01  3.1965624957E+02  2.6903535800E+02 0. 9.
       1    1    4    0  103    0  6.2509608620E+02 -6.9930953838E+02 -5.6953253932E+02  1.0973360332E+03  3.3000000000E-01 0. 9.
 1000022    1    5    0    0    0  6.3334322168E+01  1.4587271879E+02 -4.7033971166E+02  5.1297233586E+02  1.2896157000E+02 0. 9.
      24    2    5    0    0    0 -1.2275801605E+01  1.4868401926E+01 -5.0145338636E+01  9.6723811292E+01  8.0431188000E+01 0. 9.
 1000022    1    8    0    0    0 -5.6237695425E+01  1.0495884376E+02 -1.2196237390E+02  2.1374036692E+02  1.2896157000E+02 0. 9.
      24    2    8    0    0    0 -9.6575070632E+00  3.9995167904E+01  5.5282160733E+01  1.0591588265E+02  8.0431188000E+01 0. 9.
      -3    1   11    0    0  104 -1.1803561593E+01 -1.7756304032E+01  1.3461758750E+01  2.5220613550E+01  5.0000000000E-01 0. 9.
       4    1   11    0  104    0 -4.7224001156E-01  3.2624705958E+01 -6.3607097386E+01  7.1503197742E+01  1.5000000000E+00 0. 9.
      -3    1   13    0    0  105 -3.5778705011E+01 -3.6909817178E+00  8.9464140446E+00  3.7067875615E+01  5.0000000000E-01 0. 9.
       4    1   13    0  105    0  2.6121197948E+01  4.3686149622E+01  4.6335746689E+01  6.8848007032E+01  1.5000000000E+00 0. 9.
</event>
<event>
    21   258  1.000000E+00  9.926461E+02  7.976571E-03  9.280817E-02
      21   -1    0    0  101  102  0.0000000000E+00  0.0000000000E+00  1.0879696315E+03  1.0879696315E+03  0.0000000000E+00 0. 9.
       2   -1    0    0  102    0  0.0000000000E+00  0.0000000000E+00 -1.0158850129E+03  1.0158850129E+03  0.0000000000E+00 0. 9.
 1000021    2    1    2  101  103  2.6559152482E+02  2.2163504892E+02  3.8508101506E+02  1.0080843757E+03  8.6503512500E+02 0. 9.
 1000002    2    1    2  103    0 -2.6559152482E+02 -2.2163504892E+02 -3.1299639642E+02  1.0957702687E+03  9.9150632100E+02 0. 9.
-1000024    2    3    0    0    0  1.9807729885E+02  3.2111358391E+01  1.0266833527E+02  3.5097943897E+02  2.6903535800E+02 0. 9.
       6    2    3    0  101    0 -1.1517638224E+02  3.0584203399E+02  1.2926505148E+02  3.9180689417E+02  1.7320000000E+02 0. 9.
      -5    1    3    0    0  103  1.8269060821E+02 -1.1631834346E+02  1.5314762831E+02  2.6529804260E+02  4.8000000000E+00 0. 9.
 1000024    2    4    0    0    0 -3.4549344777E+02  2.9327894296E+02 -1.2347947384E+02  5.4129979230E+02  2.6903535800E+02 0. 9.
       1    1    4    0  103    0  7.9901922948E+01 -5.1491399188E+02 -1.8951692258E+02  5.5447047638E+02  3.3000000000E-01 0. 9.
 1000022    1    5    0    0    0  3.7180765926E+01  7.0131764759E+01  5.4241328279E+01  1.6085422597E+02  1.2896157000E+02 0. 9.
     -24    2    5    0    0    0  1.6089653293E+02 -3.8020406368E+01  4.8427006992E+01  1.9012521300E+02  8.0431188000E+01 0. 9.
      24    2    6    0    0    0 -9.3835208572E+01  1.3952502699E+02  1.1300991890E+01  1.8673287859E+02  8.0431188000E+01 0. 9.
       5    1    6    0  101    0 -2.1341173669E+01  1.6631700700E+02  1.1796405959E+02  2.0507401558E+02  4.8000000000E+00 0. 9.
 1000022    1    8    0    0    0 -1.7035030909E+02  7.2736506487E+01 -1.0184142905E+02  2.4761379281E+02  1.2896157000E+02 0. 9.
      24    2    8    0    0    0 -1.7514313868E+02  2.2054243647E+02 -2.1638044785E+01  2.9368599949E+02  8.0431188000E+01 0. 9.
       3    1   11    0  104    0  2.0067986744E+00  2.6082488886E+00 -1.4185790727E+01  1.4571096792E+01  5.0000000000E-01 0. 9.
      -4    1   11    0    0  104  1.5888973425E+02 -4.0628655256E+01  6.2612797719E+01  1.7555411620E+02  1.5000000000E+00 0. 9.
      -1    1   12    0    0  105 -3.0316037892E+01  9.1467593278E+01  3.6725279520E+01  1.0312244096E+02  3.3000000000E-01 0. 9.
       2    1   12    0  105    0 -6.3519170681E+01  4.8057433716E+01 -2.5424287629E+01  8.3610437631E+01  3.3000000000E-01 0. 9.
      -1    1   15    0    0  106 -1.4550531698E+02  1.9985884399E+02 -4.4119545945E+01  2.5112148061E+02  3.3000000000E-01 0. 9.
       2    1   15    0  106    0 -2.9637821702E+01  2.0683592488E+01  2.2481501160E+01  4.2564518884E+01  3.3000000000E-01 0. 9.
</event>
<event>
    12   230  1.000000E+00  3.339400E+02  7.878015E-03  1.058691E-01
      -1   -1    0    0    0  101  0.0000000000E+00  0.0000000000E+00  3.9266094489E+02  3.9266094489E+02  0.0000000000E+00 0. 9.
       2   -1    0    0  101    0  0.0000000000E+00  0.0000000000E+00 -2.8795469598E+02  2.8795469598E+02  0.0000000000E+00 0. 9.
 1000023    2    1    2    0    0 -5.0468458745E+01 -1.9138226722E+02  9.2222760478E+01  3.4638503355E+02  2.6889276000E+02 0. 9.
 1000024    2    1    2    0    0  5.0468458745E+01  1.9138226722E+02  1.2483488425E+01  3.3423060732E+02  2.6903535800E+02 0. 9.
 1000022    1    3    0    0    0 -3.9416848587E+01 -8.9195002503E+01  6.3659893009E+00  1.6180558946E+02  1.2896157000E+02 0. 9.
      25    2    3    0    0    0 -1.1051610158E+01 -1.0218726472E+02  8.5856771177E+01  1.8457944409E+02  1.2701893900E+02 0. 9.
 1000022    1    4    0    0    0  3.8794729447E+01  1.6943866373E+02  7.5332455841E+01  2.2917363993E+02  1.2896157000E+02 0. 9.
      24    2    4    0    0    0  1.1673729298E+01  2.1943603495E+01 -6.2848967416E+01  1.0505696740E+02  8.0431188000E+01 0. 9.
       5    1    6    0  102    0 -6.3776777905E+01 -7.2357705286E+01  7.6273463734E+01  1.2306013239E+02  4.8000000000E+00 0. 9.
      -5    1    6    0    0  102  5.2725167747E+01 -2.9829559433E+01  9.5833074423E+00  6.1519311695E+01  4.8000000000E+00 0. 9.
     -11    1    8    0    0    0  1.3421477654E+01  4.8947845513E+01 -2.0367595300E+01  5.4688815871E+01  5.1000000000E-04 0. 9.
      12    1    8    0    0    0 -1.7477483559E+00 -2.7004242017E+01 -4.2481372115E+01  5.0368151525E+01  0.0000000000E+00 0. 9.
</event>
<event>
    20   259  1.000000E+00  9.746562E+02  7.974896E-03  9.300079E-02
       2   -1    0    0  101    0  0.0000000000E+00  0.0000000000E+00  1.1087894702E+03  1.1087894702E+03  0.0000000000E+00 0. 9.
      21   -1    0    0  102  101  0.0000000000E+00  0.0000000000E+00 -9.0065085655E+02  9.0065085655E+02  0.0000000000E+00 0. 9.
 2000002    2    1    2  103    0  2.3910468123E+02 -1.6523884254E+02 -1.1934744086E+02  1.0399003291E+03  9.9129912700E+02 0. 9.
 1000021    2    1    2  102  103 -2.3910468123E+02  1.6523884254E+02  3.2748605455E+02  9.6953999767E+02  8.6503512500E+02 0. 9.
 1000021    2    3    0  103  104  1.7565107464E+02 -2.9660016240E+01 -1.0825571062E+02  8.8979665258E+02  8.6503512500E+02 0. 9.
       2    1    3    0  104    0  6.3453606587E+01 -1.3557882630E+02 -1.1091730250E+01  1.5010367653E+02  3.3000000000E-01 0. 9.
-1000024    2    4    0    0    0 -1.2621064741E+02 -2.3038114402E+02  2.8074559062E+02  4.6925761533E+02  2.6903535800E+02 0. 9.
       4    1    4    0  102    0 -2.0065009209E+02  2.3160160006E+02 -7.4665453065E+00  3.0652530060E+02  1.5000000000E+00 0. 9.
      -3    1    4    0    0  103  8.7756058279E+01  1.6401838649E+02  5.4207009237E+01  1.9375708174E+02  5.0000000000E-01 0. 9.
 1000023    2    5    0    0    0  3.5400128115E+01 -6.2001678142E+01  1.3396011074E+02  3.0878148392E+02  2.6889276000E+02 0. 9.
       3    1    5    0  103    0  3.4986250105E+01  2.6379614852E+02 -7.4225006874E+01  2.7626445178E+02  5.0000000000E-01 0. 9.
      -3    1    5    0    0  104  1.0526469642E+02 -2.3145448662E+02 -1.6799081448E+02  3.0475071688E+02  5.0000000000E-01 0. 9.
 1000022    1    7    0    0    0 -1.4431252352E+02 -9.4851416123E+01  1.8445217540E+02  2.8368395643E+02  1.2896157000E+02 0. 9.
     -24    2    7    0    0    0  1.8101876109E+01 -1.3552972790E+02  9.6293415215E+01  1.8557365890E+02  8.0431188000E+01 0. 9.
 1000022    1   10    0    0    0 -1.2153964560E+01 -4.7322016711E+01  1.4989364194E+02  2.0368181694E+02  1.2896157000E+02 0. 9.
      23    2   10    0    0    0  4.7554092675E+01 -1.4679661431E+01 -1.5933531199E+01  1.0509966698E+02  9.1187600000E+01 0. 9.
       1    1   14    0  105    0  4.9918326617E+01 -8.8386711773E+01  5.6674297272E+01  1.1625891373E+02  3.3000000000E-01 0. 9.
      -2    1   14    0    0  105 -3.1816450508E+01 -4.7143016123E+01  3.9619117943E+01  6.9314745175E+01  3.3000000000E-01 0. 9.
       1    1   16    0  106    0  4.4371005408E+01 -1.5242969861E+01  3.2169570413E+01  5.6886944123E+01  3.3000000000E-01 0. 9.
      -1    1   16    0    0  106  3.1830872672E+00  5.6330842997E-01 -4.8103101612E+01  4.8212722861E+01  3.3000000000E-01 0. 9.
</event>
<event>
    12   226  1.000000E+00  2.735080E+02  7.860219E-03  1.086716E-01
      -2   -1    0    0    0  101  0.0000000000E+00  0.0000000000E+00  1.9792588950E+02  1.9792588950E+02  0.0000000000E+00 0. 9.
       2   -1    0    0  101    0  0.0000000000E+00  0.0000000000E+00 -4.6855905326E+02  4.6855905326E+02  0.0000000000E+00 0. 9.
-1000024    2    1    2    0    0  4.3595818924E+01  2.2934831185E+01  1.1223857087E+01  2.7373819743E+02  2.6903535800E+02 0. 9.
 1000024    2    1    2    0    0 -4.3595818924E+01 -2.2934831185E+01 -2.8185702085E+02  3.9274674532E+02  2.6903535800E+02 0. 9.
 1000022    1    3    0    0    0 -1.9855051364E+00 -4.3454909545E+01 -4.9392038941E+01  1.4478581229E+02  1.2896157000E+02 0. 9.
     -24    2    3    0    0    0  4.5581324060E+01  6.6389740730E+01  6.0615896028E+01  1.2895238513E+02  8.0431188000E+01 0. 9.
 1000022    1    4    0    0    0 -3.6980041597E+01 -7.3892124319E+01 -2.4798420530E+02  2.9147010503E+02  1.2896157000E+02 0. 9.
      24    2    4    0    0    0 -6.6157773266E+00  5.0957293134E+01 -3.3872815550E+01  1.0127664030E+02  8.0431188000E+01 0. 9.
      15    1    6    0    0    0 -6.5048025518E+00  5.1649116651E+00  4.6586099622E+01  4.7354104106E+01  1.7770000000E+00 0. 9.
     -16    1    6    0    0    0  5.2086126612E+01  6.1224829064E+01  1.4029796407E+01  8.1598281027E+01  0.0000000000E+00 0. 9.
      -3    1    8    0    0  102  1.9560025774E+01 -4.8528836759E-01 -3.8667827683E+01  4.3339139479E+01  5.0000000000E-01 0. 9.
       4    1    8    0  102    0 -2.6175803101E+01  5.1442581502E+01  4.7950121327E+00  5.7937500816E+01  1.5000000000E+00 0. 9.
</event>
<event>
    19   276  1.000000E+00  1.090999E+03  7.985234E-03  9.182576E-02
       1   -1    0    0  101    0  0.0000000000E+00  0.0000000000E+00  1.1111279289E+03  1.1111279289E+03  0.0000000000E+00 0. 9.
      -1   -1    0    0    0  101  0.0000000000E+00  0.0000000000E+00 -1.0900011100E+03  1.0900011100E+03  0.0000000000E+00 0. 9.
 2000001    2    1    2  102    0 -3.7374553061E+02  2.5400332369E+02  1.5496584934E+02  1.1007714170E+03  9.9170554500E+02 0. 9.
-1000001    2    1    2    0  102  3.7374553061E+02 -2.5400332369E+02 -1.3383903048E+02  1.1003576219E+03  9.9431916400E+02 0. 9.
 1000021    2    3    0  102  103 -3.0729532689E+02  3.3985660236E+02  1.1745412911E+02  9.8590778881E+02  8.6503512500E+02 0. 9.
       1    1    3    0  103    0 -6.6450203718E+01 -8.5853278674E+01  3.7511720230E+01  1.1486362822E+02  3.3000000000E-01 0. 9.
 1000024    2    4    0    0    0 -1.9869889038E+01  1.2833326681E+02  2.8280564411E+02  4.1136759237E+02  2.6903535800E+02 0. 9.
      -2    1    4    0    0  102  3.9361541965E+02 -3.8233659050E+02 -4.1664467459E+02  6.8899002953E+02  3.3000000000E-01 0. 9.
 1000023    2    5    0    0    0 -1.9097246760E+02  2.1008168419E+02 -1.7981482319E+02  4.3039689175E+02  2.6889276000E+02 0. 9.
       5    1    5    0  102    0 -1.9508068608E+02 -9.7580331152E+01  8.3466050144E+01  2.3359798081E+02  4.8000000000E+00 0. 9.
      -5    1    5    0    0  103  7.8757826784E+01  2.2735524933E+02  2.1380290215E+02  3.2191291625E+02  4.8000000000E+00 0. 9.
 1000022    1    7    0    0    0 -7.1610849666E+01  8.0976707106E+01  2.4685916941E+02  2.9875722074E+02  1.2896157000E+02 0. 9.
      24    2    7    0    0    0  5.1740960628E+01  4.7356559705E+01  3.5946474699E+01  1.1261037164E+02  8.0431188000E+01 0. 9.
 1000022    1    9    0    0    0 -6.9655875556E+01  1.3444564591E+02 -7.7056773098E+01  2.1329886432E+02  1.2896157000E+02 0. 9.
      25    2    9    0    0    0 -1.2131659204E+02  7.5636038274E+01 -1.0275805009E+02  2.1709802743E+02  1.2701893900E+02 0. 9.
      -1    1   13    0    0  104  6.3461354872E+01  6.0977099014E+01  3.4673058695E+01  9.4593234777E+01  3.3000000000E-01 0. 9.
       2    1   13    0  104    0 -1.1720394244E+01 -1.3620539309E+01  1.2734160040E+00  1.8017136860E+01  3.3000000000E-01 0. 9.
       5    1   15    0  105    0 -1.1164584768E+02  2.2931689624E+01 -1.6254775724E+01  1.1522983740E+02  4.8000000000E+00 0. 9.
      -5    1   15    0    0  105 -9.6707443590E+00  5.2704348650E+01 -8.6503274371E+01  1.0186819003E+02  4.8000000000E+00 0. 9.
</event>
<event>
    12   230  1.000000E+00  3.256477E+02  7.875769E-03  1.062141E-01
       2   -1    0    0  101    0  0.0000000000E+00  0.0000000000E+00  6.7355310789E+02  6.7355310789E+02  0.0000000000E+00 0. 9.
      -1   -1    0    0    0  101  0.0000000000E+00  0.0000000000E+00 -2.4501964963E+02  2.4501964963E+02  0.0000000000E+00 0. 9.
 1000024    2    1    2    0    0 -1.0098644656E+02  1.5331816529E+02  4.8887652808E+02  5.8743936347E+02  2.6903535800E+02 0. 9.
 1000023    2    1    2    0    0  1.0098644656E+02 -1.5331816529E+02 -6.0343069823E+01  3.3113339405E+02  2.6889276000E+02 0. 9.
 1000022    1    3    0    0    0 -1.2081297352E+02  6.9782411589E+01  2.0165630839E+02  2.7705904206E+02  1.2896157000E+02 0. 9.
      24    2    3    0    0    0  1.9826526959E+01  8.3535753705E+01  2.8722021969E+02  3.1038032141E+02  8.0431188000E+01 0. 9.
 1000022    1    4    0    0    0  8.7358583812E+01 -7.3176983385E+01 -5.3307957856E+01  1.8016441927E+02  1.2896157000E+02 0. 9.
      25    2    4    0    0    0  1.3627862749E+01 -8.0141181909E+01 -7.0351119665E+00  1.5096897478E+02  1.2701893900E+02 0. 9.
     -15    1    6    0    0    0  2.8124062647E+01 -4.7493939833E+00  5.9588323988E+01  6.6086653173E+01  1.7770000000E+00 0. 9.
      16    1    6    0    0    0 -8.2975356878E+00  8.8285147689E+01  2.2763189570E+02  2.4429366824E+02  0.0000000000E+00 0. 9.
       5    1    8    0  102    0 -4.5301535875E+01 -2.4694740368E+01 -3.7938774898E+01  6.4221880970E+01  4.8000000000E+00 0. 9.
      -5    1    8    0    0  102  5.8929398625E+01 -5.5446441542E+01  3.0903662932E+01  8.6747093810E+01  4.8000000000E+00 0. 9.
</event>
<event>
    15   241  1.000000E+00  6.970192E+02  7.944316E-03  9.667905E-02
      -1   -1    0    0    0  101  0.0000000000E+00  0.0000000000E+00  3.1226893977E+02  3.1226893977E+02  0.0000000000E+00 0. 9.
       2   -1    0    0  102    0  0.0000000000E+00  0.0000000000E+00 -2.1718940999E+03  2.1718940999E+03  0.0000000000E+00 0. 9.
 1000021    2    1    2  102  101  2.5439076418E+02 -1.0386642778E+02 -4.3114468726E+02  1.0048255593E+03  8.6503512500E+02 0. 9.
 1000024    2    1    2    0    0 -2.5439076418E+02  1.0386642778E+02 -1.4284804728E+03  1.4793374804E+03  2.6903535800E+02 0. 9.
-1000024    2    3    0    0    0  2.3379337828E+02  2.7904213643E+02 -1.1396045686E+02  4.6678781819E+02  2.6903535800E+02 0. 9.
       2    1    3    0  102    0  4.5764859853E+01 -3.6304265616E+02 -3.3935410607E+02  4.9905481743E+02  3.3000000000E-01 0. 9.
      -1    1    3    0    0  101 -2.5167473956E+01 -1.9865908049E+01  2.2169875679E+01  3.8982923640E+01  3.3000000000E-01 0. 9.
 1000022    1    4    0    0    0 -2.0376888174E+02  2.5536401620E+01 -1.1427394997E+03  1.1681859936E+03  1.2896157000E+02 0. 9.
      24    2    4    0    0    0 -5.0621882439E+01  7.8330026161E+01 -2.8574097312E+02  3.1115148674E+02  8.0431188000E+01 0. 9.
 1000022    1    5    0    0    0  9.5615255058E+01  2.2753554968E+02 -1.0808551273E+02  2.9871101079E+02  1.2896157000E+02 0. 9.
     -24    2    5    0    0    0  1.3817812322E+02  5.1506586753E+01 -5.8749441312E+00  1.6807680740E+02  8.0431188000E+01 0. 9.
      -1    1    9    0    0  103 -4.3908767679E+01  9.4488174924E+00 -5.9423184107E+01  7.4488144966E+01  3.3000000000E-01 0. 9.
       2    1    9    0  103    0 -6.7131147601E+00  6.8881208668E+01 -2.2631778901E+02  2.3666334178E+02  3.3000000000E-01 0. 9.
       3    1   11    0  104    0  1.0955580766E+02  7.2019622591E+00 -2.3808767841E+01  1.1234522989E+02  5.0000000000E-01 0. 9.
      -4    1   11    0    0  104  2.8622315559E+01  4.4304624494E+01  1.7933823710E+01  5.5731577516E+01  1.5000000000E+00 0. 9.
</event>
<event>
    20   259  1.000000E+00  1.098486E+03  7.985862E-03  9.175545E-02
       2   -1    0    0  101    0  0.0000000000E+00  0.0000000000E+00  2.0924196158E+03  2.0924196158E+03  0.0000000000E+00 0. 9.
      21   -1    0    0  102  101  0.0000000000E+00  0.0000000000E+00 -5.8476517807E+02  5.8476517807E+02  0.0000000000E+00 0. 9.
 2000002    2    1    2  103    0  2.4711639480E+02  5.2926813977E+02  6.2003807095E+02  1.3070242710E+03  9.9129912700E+02 0. 9.
 1000021    2    1    2  102  103 -2.4711639480E+02 -5.2926813977E+02  8.8761636673E+02  1.3701605228E+03  8.6503512500E+02 0. 9.
 1000021    2    3    0  103  104  1.4029056126E+02  4.8124829672E+02  6.4158104692E+02  1.1879366027E+03  8.6503512500E+02 0. 9.
       2    1    3    0  104    0  1.0682583353E+02  4.8019843054E+01 -2.1542975972E+01  1.1908766834E+02  3.3000000000E-01 0. 9.
 1000024    2    4    0    0    0 -2.0947653907E+02  1.0324934834E+02  4.4643637882E+02  5.7116224712E+02  2.6903535800E+02 0. 9.
      -2    1    4    0    0  103 -1.1570992455E+02 -2.6701462359E+02  1.6759792983E+02  3.3581955100E+02  3.3000000000E-01 0. 9.
       1    1    4    0  102    0  7.8070068822E+01 -3.6550286452E+02  2.7358205809E+02  4.6317872471E+02  3.3000000000E-01 0. 9.
 1000024    2    5    0    0    0  1.9490633526E+02  5.7534546031E+02  6.1200020225E+02  9.0329128725E+02  2.6903535800E+02 0. 9.
      -2    1    5    0    0  104  2.1172449276E+01  8.1852368627E+01 -1.9738797779E+01  8.6820572999E+01  3.3000000000E-01 0. 9.
       1    1    5    0  103    0 -7.5788223275E+01 -1.7594953222E+02  4.9319642457E+01  1.9782474240E+02  3.3000000000E-01 0. 9.
 1000022    1    7    0    0    0 -3.5647957708E+01  5.9616041007E+01  1.1643574888E+02  1.8711819630E+02  1.2896157000E+02 0. 9.
      24    2    7    0    0    0 -1.7382858136E+02  4.3633307330E+01  3.3000062994E+02  3.8404405082E+02  8.0431188000E+01 0. 9.
 1000022    1   10    0    0    0  1.0906722433E+02  4.6981720074E+02  5.1793926442E+02  7.1938586982E+02  1.2896157000E+02 0. 9.
      24    2   10    0    0    0  8.5839110930E+01  1.0552825957E+02  9.4060937829E+01  1.8390541743E+02  8.0431188000E+01 0. 9.
     -15    1   14    0    0    0 -4.7719675379E+01  3.0130805204E+01  1.7433977692E+02  1.8325541844E+02  1.7770000000E+00 0. 9.
      16    1   14    0    0    0 -1.2610890598E+02  1.3502502126E+01  1.5566085302E+02  2.0078863238E+02  0.0000000000E+00 0. 9.
      -1    1   16    0    0  105 -7.8008457343E+00  4.5517756227E+01  2.0284721124E+01  5.0441036243E+01  3.3000000000E-01 0. 9.
       2    1   16    0  105    0  9.3639956664E+01  6.0010503344E+01  7.3776216705E+01  1.3346438119E+02  3.3000000000E-01 0. 9.
</event>
<event>
    19   272  1.000000E+00  1.020608E+03  7.979117E-03  9.251713E-02
       1   -1    0    0  101    0  0.0000000000E+00  0.0000000000E+00  2.0131978956E+03  2.0131978956E+03  0.0000000000E+00 0. 9.
       2   -1    0    0  102    0  0.0000000000E+00  0.0000000000E+00 -6.2095910611E+02  6.2095910611E+02  0.0000000000E+00 0. 9.
 2000001    2    1    2  102    0 -2.3185759255E+02 -6.9320135222E+01  1.2340829894E+03  1.6015629669E+03  9.9170554500E+02 0. 9.
 2000002    2    1    2  101    0  2.3185759255E+02  6.9320135222E+01  1.5815580012E+02  1.0325940348E+03  9.9129912700E+02 0. 9.
 1000021    2    3    0  102  103 -1.6777309277E+02 -4.0723561764E+01  1.2497153210E+03  1.5296667513E+03  8.6503512500E+02 0. 9.
       1    1    3    0  103    0 -6.4084499781E+01 -2.8596573459E+01 -1.5632331604E+01  7.1896215597E+01  3.3000000000E-01 0. 9.
 1000022    1    4    0    0    0  2.0831147588E+02  4.8661449682E+02 -8.1389773190E+01  5.5085635261E+02  1.2896157000E+02 0. 9.
       2    1    4    0  101    0  2.3546116678E+01 -4.1729436160E+02  2.3954557331E+02  4.8173768217E+02  3.3000000000E-01 0. 9.
 1000024    2    5    0    0    0 -1.8703553788E+02  1.4115913912E+02  1.7474729720E+02  3.9727174166E+02  2.6903535800E+02 0. 9.
      -6    2    5    0    0  103  2.8617839949E+01 -2.3972254674E+02  9.0819698624E+02  9.5556574132E+02  1.7320000000E+02 0. 9.
       5    1    5    0  102    0 -9.3553948429E+00  5.7839845863E+01  1.6677103754E+02  1.7682926835E+02  4.8000000000E+00 0. 9.
 1000022    1    9    0    0    0 -1.2938907118E+02  8.8336909748E+01  1.9710978005E+02  2.8289272400E+02  1.2896157000E+02 0. 9.
      24    2    9    0    0    0 -5.7646466701E+01  5.2822229369E+01 -2.2362482844E+01  1.1437901766E+02  8.0431188000E+01 0. 9.
     -24    2   10    0    0    0 -2.6798006727E+01 -6.0517781458E+01  4.1523581197E+02  4.2810102848E+02  8.0431188000E+01 0. 9.
      -5    1   10    0    0  103  5.5415846675E+01 -1.7920476529E+02  4.9296117427E+02  5.2746471285E+02  4.8000000000E+00 0. 9.
      -3    1   13    0    0  104 -1.5598579964E+01 -7.3352758242E+00  2.2497588819E+01  2.8346313181E+01  5.0000000000E-01 0. 9.
       4    1   13    0  104    0 -4.2047886738E+01  6.0157505193E+01 -4.4860071663E+01  8.6032704478E+01  1.5000000000E+00 0. 9.
      15    1   14    0    0    0  4.7961175561E+00  1.8429365795E+01  7.7181416996E+01  7.9515867132E+01  1.7770000000E+00 0. 9.
     -16    1   14    0    0    0 -3.1594124283E+01 -7.8947147252E+01  3.3805439497E+02  3.4858516134E+02  0.0000000000E+00 0. 9.
</event>
<event>
    24   259  1.000000E+00  9.330255E+02  7.970901E-03  9.346377E-02
       2   -1    0    0  101    0  0.0000000000E+00  0.0000000000E+00  1.4964520702E+03  1.4964520702E+03  0.0000000000E+00 0. 9.
      21   -1    0    0  102  101  0.0000000000E+00  0.0000000000E+00 -7.1024043623E+02  7.1024043623E+02  0.0000000000E+00 0. 9.
 2000002    2    1    2  103    0 -4.1002557047E+01 -5.8098800307E+01  8.8802780144E+02  1.3327880610E+03  9.9129912700E+02 0. 9.
 1000021    2    1    2  102  103  4.1002557047E+01  5.8098800307E+01 -1.0181616747E+02  8.7390444542E+02  8.6503512500E+02 0. 9.
 1000021    2    3    0  103  104  7.1746459240E+01 -2.7785337829E+01  7.1955677762E+02  1.1278152788E+03  8.6503512500E+02 0. 9.
       2    1    3    0  104    0 -1.1274901629E+02 -3.0313462478E+01  1.6847102382E+02  2.0497278221E+02  3.3000000000E-01 0. 9.
 1000024    2    4    0    0    0 -7.0778965685E+01 -1.3602928583E+02 -2.3693143846E+02  3.8991044994E+02  2.6903535800E+02 0. 9.
      -2    1    4    0    0  103 -7.5833664046E+01 -9.0053445280E+01  2.4483934182E-01  1.1773077956E+02  3.3000000000E-01 0. 9.
       1    1    4    0  102    0  1.8761518678E+02  2.8418153141E+02  1.3487043165E+02  3.6626321592E+02  3.3000000000E-01 0. 9.
 1000024    2    5    0    0    0  8.7141191184E+01  6.0690303651E+01  1.2782914966E+02  3.1622336333E+02  2.6903535800E+02 0. 9.
      -6    2    5    0    0  104 -2.4398195094E+02 -2.4830588838E+01  2.2677145921E+02  3.7625428269E+02  1.7320000000E+02 0. 9.
       5    1    5    0  103    0  2.2858721900E+02 -6.3645052642E+01  3.6495616875E+02  4.3533763279E+02  4.8000000000E+00 0. 9.
 1000022    1    7    0    0    0 -3.0069965828E+00 -1.3820767028E+02 -9.0477450942E+01  2.0958925979E+02  1.2896157000E+02 0. 9.
      24    2    7    0    0    0 -6.7771969103E+01  2.1783844522E+00 -1.4645398751E+02  1.8032119015E+02  8.0431188000E+01 0. 9.
 1000022    1   10    0    0    0  1.9031207211E+01 -3.9838738468E+01  9.7120530354E+01  1.6737023596E+02  1.2896157000E+02 0. 9.
      24    2   10    0    0    0  6.8109983973E+01  1.0052904212E+02  3.0708619304E+01  1.4885312737E+02  8.0431188000E+01 0. 9.
     -24    2   11    0    0    0 -1.2150213172E+02 -7.3587847578E+01  9.0736353519E+01  1.8676241907E+02  8.0431188000E+01 0. 9.
      -5    1   11    0    0  104 -1.2247981922E+02  4.8757258740E+01  1.3603510569E+02  1.8949186362E+02  4.8000000000E+00 0. 9.
      -1    1   14    0    0  105  5.5041998828E+00 -9.3752375987E+00 -7.9970323279E+01  8.0706584625E+01  3.3000000000E-01 0. 9.
       2    1   14    0  105    0 -7.3276168985E+01  1.1553622051E+01 -6.6483664235E+01  9.9614605524E+01  3.3000000000E-01 0. 9.
     -11    1   16    0    0    0  2.0064607368E+01  3.8870069258E+01 -2.7255003330E+01  5.1539363207E+01  5.1000000000E-04 0. 9.
      12    1   16    0    0    0  4.8045376605E+01  6.1658972860E+01  5.7963622634E+01  9.7313764166E+01  0.0000000000E+00 0. 9.
      15    1   17    0    0    0 -4.7765930088E+01 -2.2072614872E+01 -7.9363859467E+00  5.3244045257E+01  1.7770000000E+00 0. 9.
     -16    1   17    0    0    0 -7.3736201636E+01 -5.1515232706E+01  9.8672739466E+01  1.3351837381E+02  0.0000000000E+00 0. 9.
</event>
<event>
    20   258  1.000000E+00  1.050945E+03  7.981802E-03  9.221221E-02
      21   -1    0    0  101  102  0.0000000000E+00  0.0000000000E+00  4.2747890724E+02  4.2747890724E+02  0.0000000000E+00 0. 9.
       2   -1    0    0  102    0  0.0000000000E+00  0.0000000000E+00 -2.5792452722E+03  2.5792452722E+03  0.0000000000E+00 0. 9.
 1000021    2    1    2  101  103 -2.9254144855E+02 -3.9143272247E+02 -1.0684627404E+03  1.4590059871E+03  8.6503512500E+02 0. 9.
 1000002    2    1    2  103    0  2.9254144855E+02  3.9143272247E+02 -1.0833036246E+03  1.5477181924E+03  9.9150632100E+02 0. 9.
 1000024    2    3    0    0    0 -2.8494935918E+02 -2.7987186870E+02 -6.3915363409E+02  8.0026357659E+02  2.6903535800E+02 0. 9.
      -4    1    3    0    0  103 -2.0347252828E+02 -1.4669984579E+02 -9.2160326198E+01  2.6724088430E+02  1.5000000000E+00 0. 9.
       3    1    3    0  101    0  1.9588043891E+02  3.5138992029E+01 -3.3714878009E+02  3.9150152621E+02  5.0000000000E-01 0. 9.
 1000021    2    4    0  103  104  2.7890557306E+02  4.1383286886E+02 -1.1213012390E+03  1.5015486000E+03  8.6503512500E+02 0. 9.
       2    1    4    0  104    0  1.3635875485E+01 -2.2400146398E+01  3.7997614416E+01  4.6169592376E+01  3.3000000000E-01 0. 9.
 1000022    1    5    0    0    0 -1.7553996579E+02 -7.2029526396E+01 -2.5655323759E+02  3.4417028128E+02  1.2896157000E+02 0. 9.
      24    2    5    0    0    0 -1.0940939338E+02 -2.0784234231E+02 -3.8260039650E+02  4.5609329530E+02  8.0431188000E+01 0. 9.
 1000023    2    8    0    0    0  3.8354171643E+02  2.3356596363E+01 -4.0898322411E+02  6.2227033741E+02  2.6889276000E+02 0. 9.
       5    1    8    0  103    0  3.5588616031E+01  1.7577482039E+02 -7.9062761791E+01  1.9605432252E+02  4.8000000000E+00 0. 9.
      -5    1    8    0    0  104 -1.4022475940E+02  2.1470145211E+02 -6.3325525312E+02  6.8322394007E+02  4.8000000000E+00 0. 9.
      -1    1   11    0    0  105 -1.1786973965E+02 -1.7051874960E+02 -3.4471162131E+02  4.0223889700E+02  3.3000000000E-01 0. 9.
       2    1   11    0  105    0  8.4603462671E+00 -3.7323592711E+01 -3.7888775184E+01  5.3854398304E+01  3.3000000000E-01 0. 9.
 1000022    1   12    0    0    0  1.8595067438E+02 -2.9538088006E+01 -1.9957918292E+02  3.0317171494E+02  1.2896157000E+02 0. 9.
      25    2   12    0    0    0  1.9759104205E+02  5.2894684369E+01 -2.0940404118E+02  3.1909862247E+02  1.2701893900E+02 0. 9.
       5    1   18    0  106    0 -7.3734002384E+00  2.2139588597E+01 -5.7043373891E+01  6.1818402755E+01  4.8000000000E+00 0. 9.
      -5    1   18    0    0  106  2.0496444229E+02  3.0755095772E+01 -1.5236066729E+02  2.5728021971E+02  4.8000000000E+00 0. 9.
</event>
<event>
    12   230  1.000000E+00  2.981312E+02  7.867894E-03  1.074434E-01
      -1   -1    0    0    0  101  0.0000000000E+00  0.0000000000E+00  5.7475913926E+02  5.7475913926E+02  0.0000000000E+00 0. 9.
       2   -1    0    0  101    0  0.0000000000E+00  0.0000000000E+00 -2.0345783313E+02  2.0345783313E+02  0.0000000000E+00 0. 9.
 1000023    2    1    2    0    0 -5.9667103195E+01 -1.1393145861E+02 -4.9747861006E+00  2.9810837852E+02  2.6889276000E+02 0. 9.
 1000024    2    1    2    0    0  5.9667103195E+01  1.1393145861E+02  3.7627609223E+02  4.8010859386E+02  2.6903535800E+02 0. 9.
 1000022    1    3    0    0    0 -2.6034624361E+01 -5.6400220868E+01  3.8492010477E+01  1.4822789207E+02  1.2896157000E+02 0. 9.
      25    2    3    0    0    0 -3.3632478835E+01 -5.7531237744E+01 -4.3466796577E+01  1.4988048645E+02  1.2701893900E+02 0. 9.
 1000022    1    4    0    0    0 -4.5568639289E+01  4.1629176321E+01  2.2392032054E+02  2.6567063386E+02  1.2896157000E+02 0. 9.
      24    2    4    0    0    0  1.0523574248E+02  7.2302282291E+01  1.5235577169E+02  2.1443796000E+02  8.0431188000E+01 0. 9.
       5    1    6    0  102    0 -5.3897272916E+01  2.4059919903E+01 -1.6930111192E+01  6.1591106813E+01  4.8000000000E+00 0. 9.
      -5    1    6    0    0  102  2.0264794081E+01 -8.1591157647E+01 -2.6536685386E+01  8.8289379636E+01  4.8000000000E+00 0. 9.
      -3    1    8    0    0  103  2.5842858861E+01 -9.1913617222E+00  4.3909740710E+00  2.7782460973E+01  5.0000000000E-01 0. 9.
       4    1    8    0  103    0  7.9392883623E+01  8.1493644013E+01  1.4796479761E+02  1.8665549903E+02  1.5000000000E+00 0. 9.
</event>
<event>
    13   247  1.000000E+00  7.229629E+02  7.947638E-03  9.626405E-02
       2   -1    0    0  101    0  0.0000000000E+00  0.0000000000E+00  1.2017112689E+03  1.2017112689E+03  0.0000000000E+00 0. 9.
      21   -1    0    0  102  101  0.0000000000E+00  0.0000000000E+00 -3.0202152131E+02  3.0202152131E+02  0.0000000000E+00 0. 9.
 2000002    2    1    2  102    0  1.0940592548E+01 -1.5133782116E+02  7.8813803062E+02  1.2754835739E+03  9.9129912700E+02 0. 9.
 1000022    1    1    2    0    0 -1.0940592548E+01  1.5133782116E+02  1.1155171700E+02  2.2824921639E+02  1.2896157000E+02 0. 9.
 1000021    2    3    0  102  103  8.5215432855E+00 -1.1640816735E+02  8.4098372293E+02  1.2120902886E+03  8.6503512500E+02 0. 9.
       2    1    3    0  103    0  2.4190492625E+00 -3.4929653813E+01 -5.2845692303E+01  6.3393285211E+01  3.3000000000E-01 0. 9.
 1000024    2    5    0    0    0 -3.7977861416E+01 -7.7492610415E+01  3.7087208856E+02  4.6623336705E+02  2.6903535800E+02 0. 9.
      -4    1    5    0    0  103  1.5406387436E+01 -2.9385631735E+02  1.3528357936E+02  3.2387156229E+02  1.5000000000E+00 0. 9.
       3    1    5    0  102    0  3.1093017265E+01  2.5494076042E+02  3.3482805501E+02  4.2198535930E+02  5.0000000000E-01 0. 9.
 1000022    1    7    0    0    0  1.0486265830E+01 -6.1578217802E+01  8.8947240346E+01  1.6865508229E+02  1.2896157000E+02 0. 9.
      24    2    7    0    0    0 -4.8464127246E+01 -1.5914392614E+01  2.8192484821E+02  2.9757828477E+02  8.0431188000E+01 0. 9.
      -1    1   11    0    0  104 -6.8950923651E+01  4.1438368521E-01  2.0995185691E+02  2.2098482460E+02  3.3000000000E-01 0. 9.
       2    1   11    0  104    0  2.0486796405E+01 -1.6328776299E+01  7.1972991302E+01  7.6593460161E+01  3.3000000000E-01 0. 9.
</event>
<event>
    20   258  1.000000E+00  9.919929E+02  7.976511E-03  9.281509E-02
      21   -1    0    0  101  102  0.0000000000E+00  0.0000000000E+00  2.1613021585E+03  2.1613021585E+03  0.0000000000E+00 0. 9.
       2   -1    0    0  102    0  0.0000000000E+00  0.0000000000E+00 -9.6726249738E+02  9.6726249738E+02  0.0000000000E+00 0. 9.
 1000021    2    1    2  101  103  3.3679215972E+02 -7.0254042234E+01  1.7191507975E+03  1.9550268084E+03  8.6503512500E+02 0. 9.
 1000002    2    1    2  103    0 -3.3679215972E+02  7.0254042234E+01 -5.2511113644E+02  1.1735378475E+03  9.9150632100E+02 0. 9.
-1000024    2    3    0    0    0 -1.1190296996E+02  4.2660497548E+01  6.1403250241E+02  6.8099789325E+02  2.6903535800E+02 0. 9.
       2    1    3    0  101    0 -3.6919363843E+01 -1.3948847356E+02  3.1056384116E+02  3.4244719596E+02  3.3000000000E-01 0. 9.
      -1    1    3    0    0  103  4.8561449352E+02  2.6573933775E+01  7.9455445397E+02  9.3158171917E+02  3.3000000000E-01 0. 9.
 1000021    2    4    0  103  104 -2.5665871138E+02  1.7335918392E+02 -4.5424469378E+02  1.0249639555E+03  8.6503512500E+02 0. 9.
       2    1    4    0  104    0 -8.0133448333E+01 -1.0310514169E+02 -7.0866442655E+01  1.4857389198E+02  3.3000000000E-01 0. 9.
 1000022    1    5    0    0    0 -7.7556102852E+01 -5.5010628681E+01  3.8652186122E+02  4.1841528903E+02  1.2896157000E+02 0. 9.
     -24    2    5    0    0    0 -3.4346867107E+01  9.7671126229E+01  2.2751064119E+02  2.6258260422E+02  8.0431188000E+01 0. 9.
 1000024    2    8    0    0    0 -2.4821880074E+02 -1.5413916747E+02 -6.9175305122E+01  4.0315840892E+02  2.6903535800E+02 0. 9.
      -2    1    8    0    0  104  1.3713001087E+02  8.7618664692E+00 -1.2007228922E+02  1.8247978991E+02  3.3000000000E-01 0. 9.
       1    1    8    0  103    0 -1.4556992152E+02  3.1873648492E+02 -2.6499709944E+02  4.3932575668E+02  3.3000000000E-01 0. 9.
       3    1   11    0  105    0  6.3693260869E+00 -2.2013085509E+00  7.7632859694E+01  7.7926407452E+01  5.0000000000E-01 0. 9.
      -4    1   11    0    0  105 -4.0716193194E+01  9.9872434780E+01  1.4987778150E+02  1.8465619677E+02  1.5000000000E+00 0. 9.
 1000022    1   12    0    0    0 -2.3638276626E+02 -1.3826629699E+02 -1.2811250072E+01  3.0296797807E+02  1.2896157000E+02 0. 9.
      24    2   12    0    0    0 -1.1836034478E+01 -1.5872870479E+01 -5.6364055050E+01  1.0019043085E+02  8.0431188000E+01 0. 9.
     -15    1   18    0    0    0  2.9982280246E+01 -1.1510780260E+01 -4.7265789686E+01  5.7172089297E+01  1.7770000000E+00 0. 9.
      16    1   18    0    0    0 -4.1818314724E+01 -4.3620902188E+00 -9.0982653641E+00  4.3018341554E+01  0.0000000000E+00 0. 9.
</event>
<event>
    24   259  1.000000E+00  1.087011E+03  7.984898E-03  9.186345E-02
      21   -1    0    0  101  102  0.0000000000E+00  0.0000000000E+00  5.3504618757E+02  5.3504618757E+02  0.0000000000E+00 0. 9.
       2   -1    0    0  102    0  0.0000000000E+00  0.0000000000E+00 -2.5292519521E+03  2.5292519521E+03  0.0000000000E+00 0. 9.
 1000021    2    1    2  101  103 -2.0745488101E+02  5.2256726210E+02 -4.0420245442E+02  1.1080521029E+03  8.6503512500E+02 0. 9.
 2000002    2    1    2  103    0  2.0745488101E+02 -5.2256726210E+02 -1.5900033101E+03  1.9562460367E+03  9.9129912700E+02 0. 9.
 1000024    2    3    0    0    0  8.4095541413E+01  1.4511756239E+02 -3.2639546423E+02  4.5502218619E+02  2.6903535800E+02 0. 9.
      -6    2    3    0    0  103  1.0126764569E+01  2.4744363757E+02 -1.1294562547E+02  3.2262340189E+02  1.7320000000E+02 0. 9.
       5    1    3    0  101    0 -3.0167718699E+02  1.3000606214E+02  3.5138635275E+01  3.3040651481E+02  4.8000000000E+00 0. 9.
 1000021    2    4    0  103  104  2.9875954860E+02 -4.5201776780E+02 -1.4713851904E+03  1.7907644949E+03  8.6503512500E+02 0. 9.
       2    1    4    0  104    0 -9.1304667593E+01 -7.0549494301E+01 -1.1861811971E+02  1.6548154185E+02  3.3000000000E-01 0. 9.
 1000022    1    5    0    0    0  1.6580552330E+01  3.1336795851E+01 -5.9320400194E+01  1.4631099038E+02  1.2896157000E+02 0. 9.
      24    2    5    0    0    0  6.7514989083E+01  1.1378076654E+02 -2.6707506403E+02  3.0871119581E+02  8.0431188000E+01 0. 9.
     -24    2    6    0    0    0  2.2834062632E+01  2.5078840350E+02 -1.3474754706E+02  2.9671921944E+02  8.0431188000E+01 0. 9.
      -5    1    6    0    0  103 -1.2707298062E+01 -3.3447659308E+00  2.1801921589E+01  2.5904182445E+01  4.8000000000E+00 0. 9.
-1000024    2    8    0    0    0  2.5426231863E+02 -7.6872981754E+01 -1.0116598808E+03  1.0799974631E+03  2.6903535800E+02 0. 9.
       2    1    8    0  103    0 -5.8026094632E+01 -3.4324214177E+02 -1.4300518163E+02  3.7634131638E+02  3.3000000000E-01 0. 9.
      -1    1    8    0    0  104  1.0252332460E+02 -3.1902644275E+01 -3.1672012795E+02  3.3442571544E+02  3.3000000000E-01 0. 9.
      -1    1   11    0    0  105  3.9877061988E+00 -7.2698909868E+00  4.1791647589E-01  8.3088308365E+00  3.3000000000E-01 0. 9.
       2    1   11    0  105    0  6.3527282884E+01  1.2105065753E+02 -2.6749298051E+02  3.0040236497E+02  3.3000000000E-01 0. 9.
       1    1   12    0  106    0 -7.9715157467E+00  1.3662694794E+02 -1.1076453404E+02  1.7606634791E+02  3.3000000000E-01 0. 9.
      -2    1   12    0    0  106  3.0805578378E+01  1.1416145556E+02 -2.3983013017E+01  1.2065287153E+02  3.3000000000E-01 0. 9.
 1000022    1   14    0    0    0  7.0399198665E+01 -9.5032317358E+01 -4.2120355189E+02  4.5610383376E+02  1.2896157000E+02 0. 9.
     -24    2   14    0    0    0  1.8386311997E+02  1.8159335604E+01 -5.9045632890E+02  6.2389362931E+02  8.0431188000E+01 0. 9.
       3    1   22    0  107    0  1.6860883192E+02  3.1959784212E+01 -4.4433122702E+02  4.7632011852E+02  5.0000000000E-01 0. 9.
      -4    1   22    0    0  107  1.5254288047E+01 -1.3800448608E+01 -1.4612510189E+02  1.4757351079E+02  1.5000000000E+00 0. 9.
</event>
<event>
    12   230  1.000000E+00  2.739732E+02  7.860370E-03  1.086471E-01
       2   -1    0    0  101    0  0.0000000000E+00  0.0000000000E+00  4.3832726127E+02  4.3832726127E+02  0.0000000000E+00 0. 9.
      -1   -1    0    0    0  101  0.0000000000E+00  0.0000000000E+00 -1.7124490562E+02  1.7124490562E+02  0.0000000000E+00 0. 9.
 1000024    2    1    2    0    0  2.4788913500E+01  4.5881931444E+01  1.3351038598E+02  3.0483551119E+02  2.6903535800E+02 0. 9.
 1000023    2    1    2    0    0 -2.4788913500E+01 -4.5881931444E+01  1.3357196967E+02  3.0473665570E+02  2.6889276000E+02 0. 9.
 1000022    1    3    0    0    0  3.3974383736E+01 -4.9315627724E+01  3.6947412389E+01  1.4690979446E+02  1.2896157000E+02 0. 9.
      24    2    3    0    0    0 -9.1854702364E+00  9.5197559167E+01  9.6562973593E+01  1.5792571674E+02  8.0431188000E+01 0. 9.
 1000022    1    4    0    0    0 -6.9590430362E+00  4.0811154079E+01  1.1218690556E+02  1.7587201851E+02  1.2896157000E+02 0. 9.
      23    2    4    0    0    0 -1.7829870463E+01 -8.6693085523E+01  2.1385064106E+01  1.2886463719E+02  9.1187600000E+01 0. 9.
      -1    1    6    0    0  102  2.1608059853E+00 -8.2081864516E+00 -7.0968746575E+00  1.1068782103E+01  3.3000000000E-01 0. 9.
       2    1    6    0  102    0 -1.1346276222E+01  1.0340574562E+02  1.0365984825E+02  1.4685693463E+02  3.3000000000E-01 0. 9.
       1    1    8    0  103    0 -5.8155128143E+00 -5.4146420558E+01  5.7215132952E+01  7.8989463773E+01  3.3000000000E-01 0. 9.
      -1    1    8    0    0  103 -1.2014357649E+01 -3.2546664965E+01 -3.5830068846E+01  4.9875173419E+01  3.3000000000E-01 0. 9.
</event>
<event>
    12   230  1.000000E+00  2.785514E+02  7.861845E-03  1.084089E-01
      -1   -1    0    0    0  101  0.0000000000E+00  0.0000000000E+00  4.1958560742E+02  4.1958560742E+02  0.0000000000E+00 0. 9.
       2   -1    0    0  101    0  0.0000000000E+00  0.0000000000E+00 -2.8924254498E+02  2.8924254498E+02  0.0000000000E+00 0. 9.
 1000023    2    1    2    0    0  2.4050277850E+01 -6.8343374573E+01  2.7800618773E+02  3.9349712770E+02  2.6889276000E+02 0. 9.
 1000024    2    1    2    0    0 -2.4050277850E+01  6.8343374573E+01 -1.4766312530E+02  3.1533102470E+02  2.6903535800E+02 0. 9.
 1000022    1    3    0    0    0  3.4828063729E+01 -2.0514499991E+01  9.4119798601E+01  1.6469202093E+02  1.2896157000E+02 0. 9.
      25    2    3    0    0    0 -1.0777785879E+01 -4.7828874582E+01  1.8388638913E+02  2.2880510677E+02  1.2701893900E+02 0. 9.
 1000022    1    4    0    0    0 -6.9322219902E+00  1.1375183771E+02 -4.8643768938E+01  1.7884305711E+02  1.2896157000E+02 0. 9.
      24    2    4    0    0    0 -1.7118055860E+01 -4.5408463133E+01 -9.9019356358E+01  1.3648796759E+02  8.0431188000E+01 0. 9.
       5    1    6    0  102    0  4.5767069149E+01 -4.2630679083E+01  1.4979696127E+02  1.6240125930E+02  4.8000000000E+00 0. 9.
      -5    1    6    0    0  102 -5.6544855028E+01 -5.1981954986E+00  3.4089427860E+01  6.6403847467E+01  4.8000000000E+00 0. 9.
     -15    1    8    0    0    0  4.2690371497E+00 -6.1438642782E+01 -8.8344727722E+01  1.0770738206E+02  1.7770000000E+00 0. 9.
      16    1    8    0    0    0 -2.1387093010E+01  1.6030179649E+01 -1.0674628636E+01  2.8780585531E+01  0.0000000000E+00 0. 9.
</event>
<event>
    12   230  1.000000E+00  2.925980E+02  7.866225E-03  1.077080E-01
      -2   -1    0    0    0  101  0.0000000000E+00  0.0000000000E+00  3.0543621899E+02  3.0543621899E+02  0.0000000000E+00 0. 9.
       1   -1    0    0  101    0  0.0000000000E+00  0.0000000000E+00 -3.1179698107E+02  3.1179698107E+02  0.0000000000E+00 0. 9.
-1000024    2    1    2    0    0 -8.0933918247E+01 -8.1985353985E+01 -1.0127051704E+02  3.0968958469E+02  2.6903535800E+02 0. 9.
 1000023    2    1    2    0    0  8.0933918247E+01  8.1985353985E+01  9.4909754958E+01  3.0754361537E+02  2.6889276000E+02 0. 9.
 1000022    1    3    0    0    0 -1.8690876613E+01 -1.2639306984E+02 -5.7998496533E+01  1.9057667514E+02  1.2896157000E+02 0. 9.
     -24    2    3    0    0    0 -6.2243041634E+01  4.4407715854E+01 -4.3272020503E+01  1.1911290955E+02  8.0431188000E+01 0. 9.
 1000022    1    4    0    0    0  2.8497491519E+01  1.3705821394E+00  2.9580158102E+01  1.3535160807E+02  1.2896157000E+02 0. 9.
      25    2    4    0    0    0  5.2436426729E+01  8.0614771845E+01  6.5329596855E+01  1.7219200730E+02  1.2701893900E+02 0. 9.
       3    1    6    0  102    0 -5.4653882580E+01  2.3155271761E+01  1.0952541008E+01  6.0360762470E+01  5.0000000000E-01 0. 9.
      -4    1    6    0    0  102 -7.5891590537E+00  2.1252444093E+01 -5.4224561511E+01  5.8752147077E+01  1.5000000000E+00 0. 9.
       5    1    8    0  103    0  6.9989779360E+01  1.4018168509E+01  7.3623565031E+01  1.0265742833E+02  4.8000000000E+00 0. 9.
      -5    1    8    0    0  103 -1.7553352631E+01  6.6596603336E+01 -8.2939681754E+00  6.9534578971E+01  4.8000000000E+00 0. 9.
</event>
<event>
    12   226  1.000000E+00  2.748572E+02  7.860657E-03  1.086007E-01
       2   -1    0    0  101    0  0.0000000000E+00  0.0000000000E+00  8.8690068262E+02  8.8690068262E+02  0.0000000000E+00 0. 9.
      -2   -1    0    0    0  101  0.0000000000E+00  0.0000000000E+00 -8.9038568896E+01  8.9038568896E+01  0.0000000000E+00 0. 9.
 1000024    2    1    2    0    0  4.1330400910E+01  3.8187109314E+01  2.9735321103E+02  4.0492642951E+02  2.6903535800E+02 0. 9.
-1000024    2    1    2    0    0 -4.1330400910E+01 -3.8187109314E+01  5.0050890270E+02  5.7101282200E+02  2.6903535800E+02 0. 9.
 1000022    1    3    0    0    0 -2.0086604721E+01 -4.0927321089E+01  2.0609766086E+02  2.4735773618E+02  1.2896157000E+02 0. 9.
      24    2    3    0    0    0  6.1417005631E+01  7.9114430404E+01  9.1255550166E+01  1.5756869333E+02  8.0431188000E+01 0. 9.
 1000022    1    4    0    0    0 -7.5432867704E+00 -9.4288303820E+00  4.4549218524E+02  4.6393984272E+02  1.2896157000E+02 0. 9.
     -24    2    4    0    0    0 -3.3787114140E+01 -2.8758278932E+01  5.5016717457E+01  1.0707297928E+02  8.0431188000E+01 0. 9.
     -11    1    6    0    0    0  6.6173202351E+01  4.3354996408E+01  2.6479399299E+01  8.3424858469E+01  5.1000000000E-04 0. 9.
      12    1    6    0    0    0 -4.7561967203E+00  3.5759433995E+01  6.4776150867E+01  7.4143834862E+01  0.0000000000E+00 0. 9.
       3    1    8    0  102    0 -4.1967668038E+01 -4.5754637959E+01  6.1185725582E+01  8.7170608982E+01  5.0000000000E-01 0. 9.
      -4    1    8    0    0  102  8.1805538985E+00  1.6996359026E+01 -6.1690081248E+00  1.9902370298E+01  1.5000000000E+00 0. 9.
</event>
<event>
    12   230  1.000000E+00  2.786844E+02  7.861887E-03  1.084021E-01
      -2   -1    0    0    0  101  0.0000000000E+00  0.0000000000E+00  1.0119479536E+02  1.0119479536E+02  0.0000000000E+00 0. 9.
       1   -1    0    0  101    0  0.0000000000E+00  0.0000000000E+00 -1.0091579921E+03  1.0091579921E+03  0.0000000000E+00 0. 9.
-1000024    2    1    2    0    0  3.5126695887E+01 -6.3948905296E+01 -7.2575436036E+02  7.7744630855E+02  2.6903535800E+02 0. 9.
 1000023    2    1    2    0    0 -3.5126695887E+01  6.3948905296E+01 -1.8220883637E+02  3.3290647889E+02  2.6889276000E+02 0. 9.
 1000022    1    3    0    0    0  6.4809774621E+01 -7.5308412084E+01 -2.8439617803E+02  3.2769488314E+02  1.2896157000E+02 0. 9.
     -24    2    3    0    0    0 -2.9683078734E+01  1.1359506789E+01 -4.4135818232E+02  4.4975142542E+02  8.0431188000E+01 0. 9.
 1000022    1    4    0    0    0 -2.9705797714E+01  1.7413659029E+00 -5.7634290169E+01  1.4435464909E+02  1.2896157000E+02 0. 9.
      25    2    4    0    0    0 -5.4208981734E+00  6.2207539393E+01 -1.2457454620E+02  1.8855182980E+02  1.2701893900E+02 0. 9.
       1    1    6    0  102    0 -3.9721147892E+01  3.8814650326E+01 -3.2886605073E+02  3.3352261527E+02  3.3000000000E-01 0. 9.
      -2    1    6    0    0  102  1.0038069158E+01 -2.7455143538E+01 -1.1249213159E+02  1.1622881015E+02  3.3000000000E-01 0. 9.
       5    1    8    0  103    0  4.7892831551E+01 -2.8998113652E+00 -1.5385949165E+01  5.0615211663E+01  4.8000000000E+00 0. 9.
      -5    1    8    0    0  103 -5.3313729725E+01  6.5107350758E+01 -1.0918859704E+02  1.3793661814E+02  4.8000000000E+00 0. 9.
</event>
<event>
    12   230  1.000000E+00  2.872552E+02  7.864583E-03  1.079695E-01
      -1   -1    0    0    0  101  0.0000000000E+00  0.0000000000E+00  2.2792958664E+02  2.2792958664E+02  0.0000000000E+00 0. 9.
       2   -1    0    0  101    0  0.0000000000E+00  0.0000000000E+00 -3.6709755487E+02  3.6709755487E+02  0.0000000000E+00 0. 9.
 1000023    2    1    2    0    0  5.3383708568E+01  8.5580591458E+01 -1.0455111331E+02  3.0562740330E+02  2.6889276000E+02 0. 9.
 1000024    2    1    2    0    0 -5.3383708568E+01 -8.5580591458E+01 -3.4616854923E+01  2.8939973821E+02  2.6903535800E+02 0. 9.
 1000022    1    3    0    0    0  3.3809993184E+01  8.8825654037E+00 -2.4308663508E+01  1.3580873781E+02  1.2896157000E+02 0. 9.
      25    2    3    0    0    0  1.9573715385E+01  7.6698026054E+01 -8.0242449805E+01  1.6981866549E+02  1.2701893900E+02 0. 9.
 1000022    1    4    0    0    0 -2.3193826823E+01  6.8956865897E+00  4.6671843817E+01  1.3926540000E+02  1.2896157000E+02 0. 9.
      24    2    4    0    0    0 -3.0189881745E+01 -9.2476278048E+01 -8.1288698740E+01  1.5013433820E+02  8.0431188000E+01 0. 9.
       5    1    6    0  102    0 -7.8949572179E+00 -3.4139682842E+01 -1.8360947724E+01  3.9849876980E+01  4.8000000000E+00 0. 9.
      -5    1    6    0    0  102  2.7468672603E+01  1.1083770890E+02 -6.1881502081E+01  1.2996878851E+02  4.8000000000E+00 0. 9.
     -11    1    8    0    0    0 -6.3531494453E+00 -6.0653339577E+01 -9.0680182758E+01  1.0927985018E+02  5.1000000000E-04 0. 9.
      12    1    8    0    0    0 -2.3836732300E+01 -3.1822938471E+01  9.3914840174E+00  4.0854488024E+01  0.0000000000E+00 0. 9.
</event>
<event>
    12   230  1.000000E+00  4.060186E+02  7.895516E-03  1.032621E-01
      -1   -1    0    0    0  101  0.0000000000E+00  0.0000000000E+00  2.0650564137E+02  2.0650564137E+02  0.0000000000E+00 0. 9.
       2   -1    0    0  101    0  0.0000000000E+00  0.0000000000E+00 -1.0494531035E+03  1.0494531035E+03  0.0000000000E+00 0. 9.
 1000023    2    1    2    0    0  2.6392900111E+02  1.5116510311E+02 -7.2865191593E+02  8.3411410311E+02  2.6889276000E+02 0. 9.
 1000024    2    1    2    0    0 -2.6392900111E+02 -1.5116510311E+02 -1.1429554616E+02  4.2184464172E+02  2.6903535800E+02 0. 9.
 1000022    1    3    0    0    0  1.1953547661E+02  1.0854265325E+02 -4.1775849893E+02  4.6607240608E+02  1.2896157000E+02 0. 9.
      25    2    3    0    0    0  1.4439352450E+02  4.2622449862E+01 -3.1089341700E+02  3.6804169703E+02  1.2701893900E+02 0. 9.
 1000022    1    4    0    0    0 -1.8539557016E+02 -1.4803436063E+02 -1.2759882341E+01  2.7033237042E+02  1.2896157000E+02 0. 9.
      24    2    4    0    0    0 -7.8533430950E+01 -3.1307424787E+00 -1.0153566382E+02  1.5151227130E+02  8.0431188000E+01 0. 9.
      21    1    6    0  102  103  4.4800738502E+01 -5.0609054635E+00 -2.2130215877E+02  2.2584810030E+02  0.0000000000E+00 0. 9.
      21    1    6    0  103  102  9.9592785997E+01  4.7683355326E+01 -8.9591258239E+01  1.4219359673E+02  0.0000000000E+00 0. 9.
      -3    1    8    0    0  104 -2.7567064443E+01  3.3795987853E+01 -1.8668948021E+01  4.7443560756E+01  5.0000000000E-01 0. 9.
       4    1    8    0  104    0 -5.0966366506E+01 -3.6926730331E+01 -8.2866715800E+01  1.0406871055E+02  1.5000000000E+00 0. 9.
</event>
<event>
    15   272  1.000000E+00  1.017230E+03  7.978813E-03  9.255176E-02
       2   -1    0    0  101    0  0.0000000000E+00  0.0000000000E+00  1.6238844308E+03  1.6238844308E+03  0.0000000000E+00 0. 9.
       2   -1    0    0  102    0  0.0000000000E+00  0.0000000000E+00 -1.1603876344E+03  1.1603876344E+03  0.0000000000E+00 0. 9.
 2000002    2    1    2  102    0  2.1403217102E+02  7.9206388483E+01  1.1665171939E+03  1.5477466669E+03  9.9129912700E+02 0. 9.
 2000002    2    1    2  101    0 -2.1403217102E+02 -7.9206388483E+01 -7.0302039747E+02  1.2365253983E+03  9.9129912700E+02 0. 9.
 1000022    1    3    0    0    0  4.6543354157E+02 -2.4689659228E+02  9.1952956822E+02  1.0675916927E+03  1.2896157000E+02 0. 9.
       2    1    3    0  102    0 -2.5140137054E+02  3.2610298077E+02  2.4698762563E+02  4.8015497424E+02  3.3000000000E-01 0. 9.
 1000021    2    4    0  101  103 -1.5104614201E+02 -1.8032431860E+02 -6.4240029080E+02  1.1028579682E+03  8.6503512500E+02 0. 9.
       2    1    4    0  103    0 -6.2986029016E+01  1.0111793012E+02 -6.0620106679E+01  1.3366743012E+02  3.3000000000E-01 0. 9.
-1000024    2    7    0    0    0  1.4207523234E+02 -8.5294799648E+00 -2.4435026843E+02  3.9031423393E+02  2.6903535800E+02 0. 9.
       4    1    7    0  101    0 -1.3728001022E+02 -2.9910396515E+02 -8.4175234182E+01  3.3970090259E+02  1.5000000000E+00 0. 9.
      -3    1    7    0    0  103 -1.5584136412E+02  1.2730912651E+02 -3.1387478818E+02  3.7284283166E+02  5.0000000000E-01 0. 9.
 1000022    1    9    0    0    0  9.5272234103E+01  6.9863587764E+01 -9.9790758761E+01  2.0136286042E+02  1.2896157000E+02 0. 9.
     -24    2    9    0    0    0  4.6802998233E+01 -7.8393067728E+01 -1.4455950967E+02  1.8895137351E+02  8.0431188000E+01 0. 9.
       1    1   13    0  104    0  5.1372428092E+01 -4.8336851977E+01 -1.4185847899E+02  1.5842826323E+02  3.3000000000E-01 0. 9.
      -2    1   13    0    0  104 -4.5694298592E+00 -3.0056215751E+01 -2.7010306783E+00  3.0523110281E+01  3.3000000000E-01 0. 9.
</event>
<event>
    16   271  1.000000E+00  1.082465E+03  7.984514E-03  9.190663E-02
       1   -1    0    0  101    0  0.0000000000E+00  0.0000000000E+00  1.5055312984E+03  1.5055312984E+03  0.0000000000E+00 0. 9.
       1   -1    0    0  102    0  0.0000000000E+00  0.0000000000E+00 -1.2893139445E+03  1.2893139445E+03  0.0000000000E+00 0. 9.
 1000001    2    1    2  101    0  4.2461789000E+02  5.2527441399E+01 -7.7166677538E+02  1.3293606346E+03  9.9431916400E+02 0. 9.
 1000001    2    1    2  102    0 -4.2461789000E+02 -5.2527441399E+01  9.8788412928E+02  1.4654846084E+03  9.9431916400E+02 0. 9.
-1000024    2    3    0    0    0  1.9407930149E+02  4.6917529312E+02 -2.6091645615E+02  6.3107024323E+02  2.6903535800E+02 0. 9.
       2    1    3    0  101    0  2.3053858851E+02 -4.1664785172E+02 -5.1075031923E+02  6.9829039134E+02  3.3000000000E-01 0. 9.
-1000024    2    4    0    0    0 -5.3138069851E+01  2.5118774219E+02  5.2151310872E+00  3.7192224690E+02  2.6903535800E+02 0. 9.
       2    1    4    0  102    0 -3.7147982015E+02 -3.0371518359E+02  9.8266899819E+02  1.0935623615E+03  3.3000000000E-01 0. 9.
 1000022    1    5    0    0    0  9.9998345702E+01  3.1339725063E+02 -8.0293032361E+01  3.6234729670E+02  1.2896157000E+02 0. 9.
     -24    2    5    0    0    0  9.4080955792E+01  1.5577804249E+02 -1.8062342378E+02  2.6872294652E+02  8.0431188000E+01 0. 9.
 1000022    1    7    0    0    0  7.2882126669E+00  2.3653053933E+02 -6.5503500329E+00  2.6958079995E+02  1.2896157000E+02 0. 9.
     -24    2    7    0    0    0 -6.0426282518E+01  1.4657202858E+01  1.1765481120E+01  1.0234144695E+02  8.0431188000E+01 0. 9.
      15    1   10    0    0    0  9.4715863513E+00  3.0785068741E+00  7.1093527221E+00  1.2364820165E+01  1.7770000000E+00 0. 9.
     -16    1   10    0    0    0  8.4609369441E+01  1.5269953562E+02 -1.8773277651E+02  2.5635812636E+02  0.0000000000E+00 0. 9.
       1    1   12    0  103    0 -4.7623933096E+01  2.3042378785E+01 -2.7890908196E+01  5.9808041964E+01  3.3000000000E-01 0. 9.
      -4    1   12    0    0  103 -1.2802349422E+01 -8.3851759265E+00  3.9656389316E+01  4.2533404985E+01  1.5000000000E+00 0. 9.
</event>
<event>
     6   247  1.000000E+00  7.158983E+02  7.946745E-03  9.637521E-02
      21   -1    0    0  101  102  0.0000000000E+00  0.0000000000E+00  3.0013946091E+02  3.0013946091E+02  0.0000000000E+00 0. 9.
      -2   -1    0    0    0  101  0.0000000000E+00  0.0000000000E+00 -1.1404430446E+03  1.1404430446E+03  0.0000000000E+00 0. 9.
 1000022    1    1    2    0    0  9.3123738830E+01  6.4697472436E+01 -1.4041499040E+02  2.2182256364E+02  1.2896157000E+02 0. 9.
-2000002    2    1    2    0  102 -9.3123738830E+01 -6.4697472436E+01 -6.9988859328E+02  1.2187599419E+03  9.9129912700E+02 0. 9.
 1000022    1    4    0    0    0 -1.0795857844E+02 -2.5644445367E+02 -8.9422367600E+02  9.4534960820E+02  1.2896157000E+02 0. 9.
      -2    1    4    0    0  102  1.4834839612E+01  1.9174698123E+02  1.9433508271E+02  2.7341033366E+02  3.3000000000E-01 0. 9.
</event>
<event>
    12   226  1.000000E+00  3.023542E+02  7.869148E-03  1.072457E-01
       1   -1    0    0  101    0  0.0000000000E+00  0.0000000000E+00  3.7263662733E+02  3.7263662733E+02  0.0000000000E+00 0. 9.
      -1   -1    0    0    0  101  0.0000000000E+00  0.0000000000E+00 -4.0300361310E+02  4.0300361310E+02  0.0000000000E+00 0. 9.
-1000024    2    1    2    0    0 -4.0596272102E+01  1.3187096614E+02  2.2739860249E+02  3.7832282153E+02  2.6903535800E+02 0. 9.
 1000024    2    1    2    0    0  4.0596272102E+01 -1.3187096614E+02 -2.5776558826E+02  3.9731741891E+02  2.6903535800E+02 0. 9.
 1000022    1    3    0    0    0 -8.0456452609E+01  2.0030320450E+01  1.5366704740E+02  2.1706934951E+02  1.2896157000E+02 0. 9.
     -24    2    3    0    0    0  3.9860180507E+01  1.1184064569E+02  7.3731555098E+01  1.6125347202E+02  8.0431188000E+01 0. 9.
 1000022    1    4    0    0    0  6.6365022380E+01 -1.4482262830E+01 -1.8472287188E+02  2.3530337453E+02  1.2896157000E+02 0. 9.
      24    2    4    0    0    0 -2.5768750278E+01 -1.1738870331E+02 -7.3042716384E+01  1.6201404438E+02  8.0431188000E+01 0. 9.
       3    1    6    0  102    0  7.0855189344E+00 -7.5161992084E+00  2.7050345554E+01  2.8959782867E+01  5.0000000000E-01 0. 9.
      -4    1    6    0    0  102  3.2774661572E+01  1.1935684490E+02  4.6681209544E+01  1.3229368915E+02  1.5000000000E+00 0. 9.
      -3    1    8    0    0  103 -3.6384839860E+01 -1.2231930343E+02 -7.7606233560E+01  1.4936146106E+02  5.0000000000E-01 0. 9.
       4    1    8    0  103    0  1.0616089582E+01  4.9306001196E+00  4.5635171762E+00  1.2652583316E+01  1.5000000000E+00 0. 9.
</event>
<event>
    12   230  1.000000E+00  3.017769E+02  7.868977E-03  1.072725E-01
       2   -1    0    0  101    0  0.0000000000E+00  0.0000000000E+00  4.1088291608E+02  4.1088291608E+02  0.0000000000E+00 0. 9.
      -1   -1    0    0    0  101  0.0000000000E+00  0.0000000000E+00 -2.2422851873E+02  2.2422851873E+02  0.0000000000E+00 0. 9.
 1000024    2    1    2    0    0  1.2542449133E+02  5.4738878537E+01  5.9246965762E+01  3.0760018637E+02  2.6903535800E+02 0. 9.
 1000023    2    1    2    0    0 -1.2542449133E+02 -5.4738878537E+01  1.2740743159E+02  3.2751124844E+02  2.6889276000E+02 0. 9.
 1000022    1    3    0    0    0  1.3894690292E+01 -3.1593074699E+01 -3.4733648311E+00  1.3354525670E+02  1.2896157000E+02 0. 9.
      24    2    3    0    0    0  1.1152980104E+02  8.6331953236E+01  6.2720330593E+01  1.7405492967E+02  8.0431188000E+01 0. 9.
 1000022    1    4    0    0    0 -9.9589610468E+01 -3.5464034528E+01  9.7253690303E+01  1.9304184798E+02  1.2896157000E+02 0. 9.
      25    2    4    0    0    0 -2.5834880864E+01 -1.9274844009E+01  3.0153741288E+01  1.3446940046E+02  1.2701893900E+02 0. 9.
     -11    1    6    0    0    0  6.5941539456E+01  6.3625553668E+01 -2.0547097509E+00  9.1655439215E+01  5.1000000000E-04 0. 9.
      12    1    6    0    0    0  4.5588261584E+01  2.2706399569E+01  6.4775040344E+01  8.2399490455E+01  0.0000000000E+00 0. 9.
       5    1    8    0  102    0 -7.4845381509E+01 -2.2724865331E+01  3.2978904124E+01  8.5022930758E+01  4.8000000000E+00 0. 9.
      -5    1    8    0    0  102  4.9010500645E+01  3.4500213216E+00 -2.8251628360E+00  4.9446469699E+01  4.8000000000E+00 0. 9.
</event>
<event>
    12   230  1.000000E+00  4.677847E+02  7.908246E-03  1.014519E-01
       2   -1    0    0  101    0  0.0000000000E+00  0.0000000000E+00  6.2883436599E+02  6.2883436599E+02  0.0000000000E+00 0. 9.
      -1   -1    0    0    0  101  0.0000000000E+00  0.0000000000E+00 -4.9387356510E+02  4.9387356510E+02  0.0000000000E+00 0. 9.
 1000024    2    1    2    0    0 -1.0527584820E+02 -3.6796445089E+02  3.7258670517E+02  5.9806497812E+02  2.6903535800E+02 0. 9.
 1000023    2    1    2    0    0  1.0527584820E+02  3.6796445089E+02 -2.3762590428E+02  5.2464295297E+02  2.6889276000E+02 0. 9.
 1000022    1    3    0    0    0 -5.9912732365E+01 -1.0444270083E+02  2.1250064800E+02  2.7619816290E+02  1.2896157000E+02 0. 9.
      24    2    3    0    0    0 -4.5363115835E+01 -2.6352175006E+02  1.6008605717E+02  3.2186681522E+02  8.0431188000E+01 0. 9.
 1000022    1    4    0    0    0  5.7796082242E+01  2.4597899597E+02 -1.6601955408E+02  3.2869382783E+02  1.2896157000E+02 0. 9.
      25    2    4    0    0    0  4.7479765958E+01  1.2198545492E+02 -7.1606350194E+01  1.9594912513E+02  1.2701893900E+02 0. 9.
      -1    1    6    0    0  102 -3.8369008205E+01 -1.5563824806E+02  5.0832463525E+01  1.6816507752E+02  3.3000000000E-01 0. 9.
       2    1    6    0  102    0 -6.9941076296E+00 -1.0788350200E+02  1.0925359365E+02  1.5370173770E+02  3.3000000000E-01 0. 9.
       5    1    8    0  103    0  7.6617643459E+01  4.4960786249E+01 -7.0397707519E+01  1.1344872328E+02  4.8000000000E+00 0. 9.
      -5    1    8    0    0  103 -2.9137877501E+01  7.7024668671E+01 -1.2086426749E+00  8.2500401855E+01  4.8000000000E+00 0. 9.
</event>
<event>
    24   258  1.000000E+00  9.455670E+02  7.972123E-03  9.332167E-02
       2   -1    0    0  101    0  0.0000000000E+00  0.0000000000E+00  8.2699471269E+02  8.2699471269E+02  0.0000000000E+00 0. 9.
      21   -1    0    0  102  101  0.0000000000E+00  0.0000000000E+00 -1.7334759908E+03  1.7334759908E+03  0.0000000000E+00 0. 9.
 1000002    2    1    2  103    0 -1.0342049986E+02 -1.3310084045E+02  3.1530446576E+02  1.0539987307E+03  9.9150632100E+02 0. 9.
 1000021    2    1    2  102  103  1.0342049986E+02  1.3310084045E+02 -1.2217857439E+03  1.5064719728E+03  8.6503512500E+02 0. 9.
 1000021    2    3    0  103  104  2.0839314301E+01 -7.8699472474E+01  2.9025894142E+02  9.1605889797E+02  8.6503512500E+02 0. 9.
       2    1    3    0  104    0 -1.2425981416E+02 -5.4401367975E+01  2.5045524339E+01  1.3793983269E+02  3.3000000000E-01 0. 9.
 1000023    2    4    0    0    0 -8.6821636994E+01  3.3995588550E+02 -9.7219977204E+02  1.0679811393E+03  2.6889276000E+02 0. 9.
       3    1    4    0  102    0  1.2141886788E+02 -2.2426790853E+02 -1.0190797880E+02  2.7463452517E+02  5.0000000000E-01 0. 9.
      -3    1    4    0    0  103  6.8823268974E+01  1.7412863476E+01 -1.4767799303E+02  1.6385630837E+02  5.0000000000E-01 0. 9.
-1000024    2    5    0    0    0  2.3392515402E+02  1.2741611566E+01 -8.4920189697E+01  3.6670804303E+02  2.6903535800E+02 0. 9.
       6    2    5    0  103    0 -4.9535141329E+01 -1.3216101440E+02  1.5455118950E+02  2.7166997282E+02  1.7320000000E+02 0. 9.
      -5    1    5    0    0  104 -1.6355069839E+02  4.0719930359E+01  2.2062794162E+02  2.7768088212E+02  4.8000000000E+00 0. 9.
 1000022    1    7    0    0    0 -2.3331957323E+01  2.0928093131E+02 -4.9297848161E+02  5.5136354459E+02  1.2896157000E+02 0. 9.
      25    2    7    0    0    0 -6.3489679671E+01  1.3067495419E+02 -4.7922129043E+02  5.1661759469E+02  1.2701893900E+02 0. 9.
 1000022    1   10    0    0    0  1.0796755954E+02 -3.5667208450E+01 -1.1488729565E+02  2.0678327038E+02  1.2896157000E+02 0. 9.
     -24    2   10    0    0    0  1.2595759449E+02  4.8408820016E+01  2.9967105954E+01  1.5992477265E+02  8.0431188000E+01 0. 9.
      24    2   11    0    0    0 -7.5689185621E+01 -9.7352501435E+01  1.7030446311E+02  2.2512029787E+02  8.0431188000E+01 0. 9.
       5    1   11    0  103    0  2.6154044292E+01 -3.4808512964E+01 -1.5753273612E+01  4.6549674941E+01  4.8000000000E+00 0. 9.
       5    1   14    0  105    0 -6.8636917494E+01  1.0131958025E+01 -1.3553034966E+02  1.5233252671E+02  4.8000000000E+00 0. 9.
      -5    1   14    0    0  105  5.1472378231E+00  1.2054299617E+02 -3.4369094078E+02  3.6428506798E+02  4.8000000000E+00 0. 9.
       3    1   16    0  106    0  4.7601001145E+01  3.7443308609E+01 -2.2906504105E+01  6.4751946688E+01  5.0000000000E-01 0. 9.
      -4    1   16    0    0  106  7.8356593341E+01  1.0965511407E+01  5.2873610059E+01  9.5172825959E+01  1.5000000000E+00 0. 9.
      -3    1   17    0    0  107 -7.2868285920E+01 -1.0106645542E+02  1.1486608433E+02  1.6946587513E+02  5.0000000000E-01 0. 9.
       4    1   17    0  107    0 -2.8208997005E+00  3.7139539810E+00  5.5438378781E+01  5.5654422745E+01  1.5000000000E+00 0. 9.
</event>
<event>
     6   247  1.000000E+00  7.271751E+02  7.948167E-03  9.619841E-02
       2   -1    0    0  101    0  0.0000000000E+00  0.0000000000E+00  8.8279594040E+02  8.8279594040E+02  0.0000000000E+00 0. 9.
      21   -1    0    0  102  101  0.0000000000E+00  0.0000000000E+00 -4.2154273550E+02  4.2154273550E+02  0.0000000000E+00 0. 9.
 2000002    2    1    2  102    0 -1.6082533960E+02  5.7151926936E+01  3.7019561316E+02  1.0718441509E+03  9.9129912700E+02 0. 9.
 1000022    1    1    2    0    0  1.6082533960E+02 -5.7151926936E+01  9.1057591742E+01  2.3249452501E+02  1.2896157000E+02 0. 9.
 1000022    1    3    0    0    0  2.2657842573E+02 -3.2795311421E+02  3.1228121538E+02  5.2253389568E+02  1.2896157000E+02 0. 9.
       2    1    3    0  102    0 -3.8740376533E+02  3.8510504115E+02  5.7914397782E+01  5.4931025521E+02  3.3000000000E-01 0. 9.
</event>
<event>
    19   277  1.000000E+00  1.142482E+03  7.989469E-03  9.135380E-02
       2   -1    0    0  101    0  0.0000000000E+00  0.0000000000E+00  1.0025595465E+03  1.0025595465E+03  0.0000000000E+00 0. 9.
      -2   -1    0    0    0  102  0.0000000000E+00  0.0000000000E+00 -1.3538322066E+03  1.3538322066E+03  0.0000000000E+00 0. 9.
 1000001    2    1    2  101    0 -4.8286883778E+01 -5.6059061059E+02  5.5049475239E+01  1.1438070206E+03  9.9431916400E+02 0. 9.
-1000001    2    1    2    0  102  4.8286883778E+01  5.6059061059E+02 -4.0632213528E+02  1.2125847324E+03  9.9431916400E+02 0. 9.
 1000021    2    3    0  101  103 -7.8166500305E+01 -5.7621751513E+02 -3.9867466927E+01  1.0430780455E+03  8.6503512500E+02 0. 9.
       1    1    3    0  103    0  2.9879616527E+01  1.5626904542E+01  9.4916942166E+01  1.0072897517E+02  3.3000000000E-01 0. 9.
 1000024    2    4    0    0    0 -5.6212552436E+01  3.8702139213E+02  2.4237697225E+02  5.3298408002E+02  2.6903535800E+02 0. 9.
      -2    1    4    0    0  102  1.0449943621E+02  1.7356921845E+02 -6.4869910753E+02  6.7960065242E+02  3.3000000000E-01 0. 9.
 1000023    2    5    0    0    0 -1.3981422879E+02  1.1368382404E+02 -4.3143071356E+01  3.2655270846E+02  2.6889276000E+02 0. 9.
       3    1    5    0  101    0 -9.6449800758E+00 -5.6219352047E+02  4.5992451805E+01  5.6415435452E+02  5.0000000000E-01 0. 9.
      -3    1    5    0    0  103  7.1292708556E+01 -1.2770781870E+02 -4.2716847377E+01  1.5237098247E+02  5.0000000000E-01 0. 9.
 1000022    1    7    0    0    0 -5.0290115327E+01  8.6936479383E+01  9.5187118197E+01  1.8915263983E+02  1.2896157000E+02 0. 9.
      24    2    7    0    0    0 -5.9224371087E+00  3.0008491275E+02  1.4718985405E+02  3.4383144019E+02  8.0431188000E+01 0. 9.
 1000022    1    9    0    0    0 -6.7276160250E+01  8.9159360741E+01 -5.0895521457E+01  1.7803627155E+02  1.2896157000E+02 0. 9.
      25    2    9    0    0    0 -7.2538068536E+01  2.4524463299E+01  7.7524501013E+00  1.4851643692E+02  1.2701893900E+02 0. 9.
      -3    1   13    0    0  104 -2.5474524765E+01  4.6638969344E+01  7.1998882255E+00  5.3630525486E+01  5.0000000000E-01 0. 9.
       4    1   13    0  104    0  1.9552087656E+01  2.5344594341E+02  1.3998996582E+02  2.9020091470E+02  1.5000000000E+00 0. 9.
       5    1   15    0  105    0 -5.5754644712E+01  7.3931107763E+01 -9.8382942105E+00  9.3242807417E+01  4.8000000000E+00 0. 9.
      -5    1   15    0    0  105 -1.6783423824E+01 -4.9406644465E+01  1.7590744312E+01  5.5273629499E+01  4.8000000000E+00 0. 9.
</event>
<event>
    15   273  1.000000E+00  1.236216E+03  7.996722E-03  9.055783E-02
       1   -1    0    0  101    0  0.0000000000E+00  0.0000000000E+00  1.0827636569E+03  1.0827636569E+03  0.0000000000E+00 0. 9.
       2   -1    0    0  102    0  0.0000000000E+00  0.0000000000E+00 -1.5177169488E+03  1.5177169488E+03  0.0000000000E+00 0. 9.
 1000001    2    1    2  102    0 -1.9442177163E+02  7.1046297196E+02  1.2643692551E+02  1.2438707151E+03  9.9431916400E+02 0. 9.
 2000002    2    1    2  101    0  1.9442177163E+02 -7.1046297196E+02 -5.6139021738E+02  1.3566098906E+03  9.9129912700E+02 0. 9.
 1000023    2    3    0    0    0 -8.9489268828E+01  5.5688286495E+01  4.2724484850E+02  5.1570436438E+02  2.6889276000E+02 0. 9.
       1    1    3    0  102    0 -1.0493250281E+02  6.5477468547E+02 -3.0080792299E+02  7.2816635071E+02  3.3000000000E-01 0. 9.
 1000021    2    4    0  101  103  2.7303766353E+02 -7.1515441221E+02 -5.3936465350E+02  1.2748315167E+03  8.6503512500E+02 0. 9.
       2    1    4    0  103    0 -7.8615891892E+01  4.6914402480E+00 -2.2025563873E+01  8.1778373875E+01  3.3000000000E-01 0. 9.
 1000022    1    5    0    0    0 -3.2788591480E+01 -1.1891253629E+01  2.1424059855E+02  2.5248091858E+02  1.2896157000E+02 0. 9.
      25    2    5    0    0    0 -5.6700677348E+01  6.7579540124E+01  2.1300424995E+02  2.6322344579E+02  1.2701893900E+02 0. 9.
 1000022    1    7    0    0    0 -9.8674979216E+00 -1.0204820623E+02  7.5833275043E+01  1.8136420829E+02  1.2896157000E+02 0. 9.
       4    1    7    0  101    0 -1.2916151425E+02 -1.7341645732E+02 -3.9794403423E+02  4.5289918173E+02  1.5000000000E+00 0. 9.
      -4    1    7    0    0  103  4.1206667570E+02 -4.3968974867E+02 -2.1725389432E+02  6.4056812667E+02  1.5000000000E+00 0. 9.
      21    1   10    0  104  105 -5.5011940356E+01  9.0559663668E+01  9.2865237624E+01  1.4089470758E+02  0.0000000000E+00 0. 9.
      21    1   10    0  105  104 -1.6887369918E+00 -2.2980123544E+01  1.2013901232E+02  1.2232873821E+02  0.0000000000E+00 0. 9.
</event>
<event>
    17   258  1.000000E+00  1.118598E+03  7.987528E-03  9.156945E-02
       2   -1    0    0  101    0  0.0000000000E+00  0.0000000000E+00  1.4652723587E+03  1.4652723587E+03  0.0000000000E+00 0. 9.
      21   -1    0    0  102  101  0.0000000000E+00  0.0000000000E+00 -1.1354304273E+03  1.1354304273E+03  0.0000000000E+00 0. 9.
 1000002    2    1    2  103    0 -5.7482836861E+02  2.3483493743E+02 -4.7833827440E+02  1.2639095658E+03  9.9150632100E+02 0. 9.
 1000021    2    1    2  102  103  5.7482836861E+02 -2.3483493743E+02  8.0818020572E+02  1.3367932202E+03  8.6503512500E+02 0. 9.
 1000022    1    3    0    0    0 -1.6352054065E+02  5.5895327259E+02 -4.3538480949E+02  7.3848408719E+02  1.2896157000E+02 0. 9.
       2    1    3    0  103    0 -4.1130782796E+02 -3.2411833517E+02 -4.2953464911E+01  5.2542547862E+02  3.3000000000E-01 0. 9.
 1000024    2    4    0    0    0  1.6929583146E+02 -3.3792827653E+02  9.4331486379E+01  4.7342903566E+02  2.6903535800E+02 0. 9.
      -6    2    4    0    0  103  2.6803019649E+02  1.1194244156E+02  5.7888290441E+02  6.7042893246E+02  1.7320000000E+02 0. 9.
       5    1    4    0  102    0  1.3750234066E+02 -8.8491024533E+00  1.3496581493E+02  1.9293525210E+02  4.8000000000E+00 0. 9.
 1000022    1    7    0    0    0  9.5417007276E+00 -1.9637187717E+02  3.4768817214E+01  2.3768238341E+02  1.2896157000E+02 0. 9.
      24    2    7    0    0    0  1.5975413073E+02 -1.4155639936E+02  5.9562669165E+01  2.3574665225E+02  8.0431188000E+01 0. 9.
     -24    2    8    0    0    0  2.4732639397E+02  8.6069923835E+01  3.7832073332E+02  4.6709113694E+02  8.0431188000E+01 0. 9.
      -5    1    8    0    0  103  2.0703802518E+01  2.5872517721E+01  2.0056217109E+02  2.0333779552E+02  4.8000000000E+00 0. 9.
     -15    1   11    0    0    0  8.5791055945E+01 -1.2569940407E+02  3.4480636266E+01  1.5605293163E+02  1.7770000000E+00 0. 9.
      16    1   11    0    0    0  7.3963074785E+01 -1.5856995284E+01  2.5082032899E+01  7.9693720615E+01  0.0000000000E+00 0. 9.
       1    1   12    0  104    0  2.3317452913E+02  9.4605406053E+01  3.7245101092E+02  4.4948905251E+02  3.3000000000E-01 0. 9.
      -4    1   12    0    0  104  1.4151864843E+01 -8.5354822173E+00  5.8697223964E+00  1.7602084429E+01  1.5000000000E+00 0. 9.
</event>
<event>
    13   259  1.000000E+00  1.052765E+03  7.981961E-03  9.219426E-02
      21   -1    0    0  101  102  0.0000000000E+00  0.0000000000E+00  7.2010780628E+02  7.2010780628E+02  0.0000000000E+00 0. 9.
       2   -1    0    0  102    0  0.0000000000E+00  0.0000000000E+00 -1.6499437352E+03  1.6499437352E+03  0.0000000000E+00 0. 9.
 1000021    2    1    2  101  103  3.6267599726E+01 -4.9144520147E+02 -1.2932114501E+02  1.0039140655E+03  8.6503512500E+02 0. 9.
 2000002    2    1    2  103    0 -3.6267599726E+01  4.9144520147E+02 -8.0051478388E+02  1.3661374760E+03  9.9129912700E+02 0. 9.
 1000024    2    3    0    0    0 -1.6340202823E+02 -3.8704913535E+02 -3.8114373621E+02  6.2781990054E+02  2.6903535800E+02 0. 9.
      -4    1    3    0    0  103  2.0248406819E+02 -9.8778944432E+01  2.7302189483E+02  3.5397779986E+02  1.5000000000E+00 0. 9.
       3    1    3    0  101    0 -2.8144402323E+00 -5.6171216923E+00 -2.1199303638E+01  2.2116365087E+01  5.0000000000E-01 0. 9.
 1000022    1    4    0    0    0  4.2865239541E+02  1.7181508433E+02 -5.9848477764E+02  7.6686270929E+02  1.2896157000E+02 0. 9.
       2    1    4    0  103    0 -4.6491999513E+02  3.1963011714E+02 -2.0203000624E+02  5.9927476668E+02  3.3000000000E-01 0. 9.
 1000022    1    5    0    0    0 -1.0720464369E+02 -1.5352503015E+02 -2.6498024601E+02  3.4915381685E+02  1.2896157000E+02 0. 9.
      24    2    5    0    0    0 -5.6197384543E+01 -2.3352410519E+02 -1.1616349020E+02  2.7866608368E+02  8.0431188000E+01 0. 9.
     -11    1   11    0    0    0 -6.6899780114E+01 -1.1160712441E+02 -7.0855099376E+01  1.4816266704E+02  5.1000000000E-04 0. 9.
      12    1   11    0    0    0  1.0702395570E+01 -1.2191698079E+02 -4.5308390823E+01  1.3050341664E+02  0.0000000000E+00 0. 9.
</event>
<event>
    19   273  1.000000E+00  1.384357E+03  8.007155E-03  8.943929E-02
       2   -1    0    0  101    0  0.0000000000E+00  0.0000000000E+00  1.1434595468E+03  1.1434595468E+03  0.0000000000E+00 0. 9.
       2   -1    0    0  102    0  0.0000000000E+00  0.0000000000E+00 -1.8998829563E+03  1.8998829563E+03  0.0000000000E+00 0. 9.
 2000002    2    1    2  101    0  9.6136639071E+02 -9.6640800572E+01 -9.0054536877E+02  1.6514298962E+03  9.9129912700E+02 0. 9.
 1000002    2    1    2  102    0 -9.6136639071E+02  9.6640800572E+01  1.4412195932E+02  1.3919126069E+03  9.9150632100E+02 0. 9.
 1000021    2    3    0  101  103  9.5763675656E+02 -7.4499930507E+01 -7.4028907569E+02  1.4896080291E+03  8.6503512500E+02 0. 9.
       2    1    3    0  103    0  3.7296341435E+00 -2.2140870065E+01 -1.6025629309E+02  1.6182186710E+02  3.3000000000E-01 0. 9.
 1000024    2    4    0    0    0 -9.1212396719E+01  3.7965022285E+01  3.9166935160E+02  4.8533076254E+02  2.6903535800E+02 0. 9.
       1    1    4    0  102    0 -8.7015399399E+02  5.8675778287E+01 -2.4754739227E+02  9.0658184436E+02  3.3000000000E-01 0. 9.
-1000024    2    5    0    0    0  4.3366467531E+02 -2.2311007102E+02 -6.2301752289E+02  8.3568774796E+02  2.6903535800E+02 0. 9.
       2    1    5    0  101    0  3.9704642118E+02  1.3401691593E+02 -2.3477528862E+02  4.8033940019E+02  3.3000000000E-01 0. 9.
      -1    1    5    0    0  103  1.2692566007E+02  1.4593224590E+01  1.1750373582E+02  1.7358088092E+02  3.3000000000E-01 0. 9.
 1000022    1    7    0    0    0  1.2826827393E+01 -3.5172359260E+01  2.1227436285E+02  2.5118342703E+02  1.2896157000E+02 0. 9.
      24    2    7    0    0    0 -1.0403922411E+02  7.3137381545E+01  1.7939498875E+02  2.3414733551E+02  8.0431188000E+01 0. 9.
 1000022    1    9    0    0    0  1.7795509018E+02 -1.7844217880E+02 -2.8133542932E+02  3.9911193371E+02  1.2896157000E+02 0. 9.
     -24    2    9    0    0    0  2.5570958513E+02 -4.4667892222E+01 -3.4168209356E+02  4.3657581425E+02  8.0431188000E+01 0. 9.
      -1    1   13    0    0  104 -1.1582984606E+02  5.3551242032E+01  1.5209582398E+02  1.9853850340E+02  3.3000000000E-01 0. 9.
       2    1   13    0  104    0  1.1790621943E+01  1.9586139513E+01  2.7299164769E+01  3.5608832106E+01  3.3000000000E-01 0. 9.
       1    1   15    0  105    0  1.7625936126E+01 -1.7071618915E+01 -7.0541096959E+01  7.4687810631E+01  3.3000000000E-01 0. 9.
      -2    1   15    0    0  105  2.3808364900E+02 -2.7596273307E+01 -2.7114099660E+02  3.6188800362E+02  3.3000000000E-01 0. 9.
</event>
<event>
    12   226  1.000000E+00  3.395394E+02  7.879502E-03  1.056422E-01
      -2   -1    0    0    0  101  0.0000000000E+00  0.0000000000E+00  8.9843878151E+01  8.9843878151E+01  0.0000000000E+00 0. 9.
       2   -1    0    0  101    0  0.0000000000E+00  0.0000000000E+00 -1.3047827500E+03  1.3047827500E+03  0.0000000000E+00 0. 9.
-1000024    2    1    2    0    0 -6.6096628404E+01  1.9631160605E+02 -6.9716743236E+02  7.7545435942E+02  2.6903535800E+02 0. 9.
 1000024    2    1    2    0    0  6.6096628404E+01 -1.9631160605E+02 -5.1777143951E+02  6.1917226874E+02  2.6903535800E+02 0. 9.
 1000022    1    3    0    0    0 -6.0137898744E+01  2.0105158476E+02 -4.2150264150E+02  4.8819450010E+02  1.2896157000E+02 0. 9.
     -24    2    3    0    0    0 -5.9587296599E+00 -4.7399787108E+00 -2.7566479086E+02  2.8725985933E+02  8.0431188000E+01 0. 9.
 1000022    1    4    0    0    0  2.3109565848E+01 -1.7661294232E+02 -2.3700309863E+02  3.2330749872E+02  1.2896157000E+02 0. 9.
      24    2    4    0    0    0  4.2987062557E+01 -1.9698663723E+01 -2.8076834087E+02  2.9586477002E+02  8.0431188000E+01 0. 9.
       3    1    6    0  102    0 -4.0684792847E+00 -3.6955678441E+01 -7.1852476370E+01  8.0903047243E+01  5.0000000000E-01 0. 9.
      -4    1    6    0    0  102 -1.8902503752E+00  3.2215699730E+01 -2.0381231449E+02  2.0635681208E+02  1.5000000000E+00 0. 9.
      -3    1    8    0    0  103  1.9757860879E+01 -4.1395434144E+01 -2.3896529257E+02  2.4332820651E+02  5.0000000000E-01 0. 9.
       4    1    8    0  103    0  2.3229201677E+01  2.1696770421E+01 -4.1803048308E+01  5.2536563507E+01  1.5000000000E+00 0. 9.
</event>
<event>
    20   259  1.000000E+00  9.584538E+02  7.973362E-03  9.317804E-02
      21   -1    0    0  101  102  0.0000000000E+00  0.0000000000E+00  7.8524997391E+02  7.8524997391E+02  0.0000000000E+00 0. 9.
       2   -1    0    0  102    0  0.0000000000E+00  0.0000000000E+00 -1.1983300799E+03  1.1983300799E+03  0.0000000000E+00 0. 9.
 1000021    2    1    2  101  103 -3.1433483474E+01  2.2839811402E+02 -2.8806222749E+01  8.9569488573E+02  8.6503512500E+02 0. 9.
 2000002    2    1    2  103    0  3.1433483474E+01 -2.2839811402E+02 -3.8427388323E+02  1.0878851681E+03  9.9129912700E+02 0. 9.
 1000024    2    3    0    0    0  2.0220055863E+01 -3.3165809678E+01  9.3926712735E+00  2.7198725654E+02  2.6903535800E+02 0. 9.
      -4    1    3    0    0  103  1.4285880464E+01  4.3473442285E+02 -2.3867270212E+00  4.3497821929E+02  1.5000000000E+00 0. 9.
       3    1    3    0  101    0 -6.5939419801E+01 -1.7317049915E+02 -3.5812167001E+01  1.8872940991E+02  5.0000000000E-01 0. 9.
 1000021    2    4    0  103  104  8.7096830909E+00 -3.1323464928E+02 -3.0418259987E+02  9.6902251039E+02  8.6503512500E+02 0. 9.
       2    1    4    0  104    0  2.2723800383E+01  8.4836535262E+01 -8.0091283366E+01  1.1886265768E+02  3.3000000000E-01 0. 9.
 1000022    1    5    0    0    0 -3.7179908953E+01  4.5194163929E+01  2.8435901069E+01  1.4444564753E+02  1.2896157000E+02 0. 9.
      24    2    5    0    0    0  5.7399964817E+01 -7.8359973607E+01 -1.9043229796E+01  1.2754160901E+02  8.0431188000E+01 0. 9.
-1000024    2    8    0    0    0 -2.7675486717E+02  2.6643838057E+01 -4.5368460545E+01  3.8954007711E+02  2.6903535800E+02 0. 9.
       4    1    8    0  103    0  3.5747768052E+01  1.5661629972E+01 -1.1559034188E+02  1.2201051885E+02  1.5000000000E+00 0. 9.
      -3    1    8    0    0  104  2.4971678221E+02 -3.5554011731E+02 -1.4322379744E+02  4.5747191442E+02  5.0000000000E-01 0. 9.
     -11    1   11    0    0    0  1.4333797867E+01 -2.5055430066E+01  3.1247823440E+01  4.2540084709E+01  5.1000000000E-04 0. 9.
      12    1   11    0    0    0  4.3066166950E+01 -5.3304543542E+01 -5.0291053235E+01  8.5001524301E+01  0.0000000000E+00 0. 9.
 1000022    1   12    0    0    0 -8.3844182434E+01  7.2267194032E+00  4.5847486969E+01  1.6067094012E+02  1.2896157000E+02 0. 9.
     -24    2   12    0    0    0 -1.9291068473E+02  1.9417118654E+01 -9.1215947514E+01  2.2886913699E+02  8.0431188000E+01 0. 9.
      11    1   18    0    0    0  3.5297548660E+00 -1.0355303589E+01 -7.5240677185E+00  1.3277916897E+01  5.1000000000E-04 0. 9.
     -12    1   18    0    0    0 -1.9644043960E+02  2.9772422242E+01 -8.3691879795E+01  2.1559122009E+02  0.0000000000E+00 0. 9.
</event>
<event>
    12   230  1.000000E+00  3.170107E+02  7.873370E-03  1.065854E-01
      -2   -1    0    0    0  101  0.0000000000E+00  0.0000000000E+00  8.2969881245E+01  8.2969881245E+01  0.0000000000E+00 0. 9.
       1   -1    0    0  101    0  0.0000000000E+00  0.0000000000E+00 -1.8541705965E+03  1.8541705965E+03  0.0000000000E+00 0. 9.
-1000024    2    1    2    0    0 -6.6606784479E+01 -1.5400537030E+02 -3.1536136033E+02  4.4719898173E+02  2.6903535800E+02 0. 9.
 1000023    2    1    2    0    0  6.6606784479E+01  1.5400537030E+02 -1.4558393550E+03  1.4899414961E+03  2.6889276000E+02 0. 9.
 1000022    1    3    0    0    0 -6.5487982038E+01 -6.8063391617E+01 -2.8315343686E+02  3.2515881721E+02  1.2896157000E+02 0. 9.
     -24    2    3    0    0    0 -1.1188024406E+00 -8.5941978679E+01 -3.2207923471E+01  1.2204016452E+02  8.0431188000E+01 0. 9.
 1000022    1    4    0    0    0  4.4679339584E+01  8.6272492595E+01 -9.4748906000E+02  9.6114816326E+02  1.2896157000E+02 0. 9.
      25    2    4    0    0    0  2.1927444895E+01  6.7732877700E+01 -5.0835029496E+02  5.2879333280E+02  1.2701893900E+02 0. 9.
      15    1    6    0    0    0 -3.7116023246E+01 -4.2457085880E+01 -3.3419293184E+01  6.5575988052E+01  1.7770000000E+00 0. 9.
     -16    1    6    0    0    0  3.5997220806E+01 -4.3484892798E+01  1.2113697127E+00  5.6464176466E+01  0.0000000000E+00 0. 9.
       5    1    8    0  102    0 -4.2805225192E+01  5.7533011869E+00 -7.9002567240E+01  9.0165588829E+01  4.8000000000E+00 0. 9.
      -5    1    8    0    0  102  6.4732670087E+01  6.1979576513E+01 -4.2934772772E+02  4.3862774397E+02  4.8000000000E+00 0. 9.
</event>
<event>
    12   230  1.000000E+00  3.098046E+02  7.871318E-03  1.069051E-01
      -1   -1    0    0    0  101  0.0000000000E+00  0.0000000000E+00  1.2075296729E+02  1.2075296729E+02  0.0000000000E+00 0. 9.
       2   -1    0    0  101    0  0.0000000000E+00  0.0000000000E+00 -9.5199009014E+02  9.5199009014E+02  0.0000000000E+00 0. 9.
 1000023    2    1    2    0    0 -6.4711978521E+01  1.3946178816E+02 -1.9762210006E+02  3.6741671346E+02  2.6889276000E+02 0. 9.
 1000024    2    1    2    0    0  6.4711978521E+01 -1.3946178816E+02 -6.3361502280E+02  7.0532634397E+02  2.6903535800E+02 0. 9.
 1000022    1    3    0    0    0 -4.0077834046E+01  1.1573958291E+02 -1.0501419618E+02  2.0654527777E+02  1.2896157000E+02 0. 9.
      25    2    3    0    0    0 -2.4634144475E+01  2.3722205249E+01 -9.2607903876E+01  1.6087143569E+02  1.2701893900E+02 0. 9.
 1000022    1    4    0    0    0  3.7354038261E+01 -1.7225671273E+02 -4.6314290209E+02  5.1205481498E+02  1.2896157000E+02 0. 9.
      24    2    4    0    0    0  2.7357940260E+01  3.2794924570E+01 -1.7047212071E+02  1.9327152898E+02  8.0431188000E+01 0. 9.
       5    1    6    0  102    0 -6.3439184461E+01  5.1254675601E+01 -4.4468842360E+01  9.3016610543E+01  4.8000000000E+00 0. 9.
      -5    1    6    0    0  102  3.8805039986E+01 -2.7532470353E+01 -4.8139061517E+01  6.7854825147E+01  4.8000000000E+00 0. 9.
      -1    1    8    0    0  103  2.4888900413E+01  3.2426444038E+01 -2.5292923123E+01  4.8070495076E+01  3.3000000000E-01 0. 9.
       2    1    8    0  103    0  2.4690398475E+00  3.6848053217E-01 -1.4517919759E+02  1.4520103391E+02  3.3000000000E-01 0. 9.
</event>
<event>
    15   241  1.000000E+00  6.434343E+02  7.937055E-03  9.760005E-02
      -1   -1    0    0    0  101  0.0000000000E+00  0.0000000000E+00  5.4139962763E+02  5.4139962763E+02  0.0000000000E+00 0. 9.
       2   -1    0    0  102    0  0.0000000000E+00  0.0000000000E+00 -1.2881914159E+03  1.2881914159E+03  0.0000000000E+00 0. 9.
 1000021    2    1    2  102  101 -4.5412745538E+01  4.0156131526E+01 -1.0877255633E+03  1.3910814141E+03  8.6503512500E+02 0. 9.
 1000024    2    1    2    0    0  4.5412745538E+01 -4.0156131526E+01  3.4093377493E+02  4.3850962942E+02  2.6903535800E+02 0. 9.
-1000024    2    3    0    0    0 -5.8915858706E+01  1.9560134988E+02 -7.0166291479E+02  7.7874375524E+02  2.6903535800E+02 0. 9.
       4    1    3    0  102    0 -1.6748123994E+02 -1.7689034972E+02 -3.5019611067E+02  4.2659081974E+02  1.5000000000E+00 0. 9.
      -3    1    3    0    0  101  1.8098435311E+02  2.1445131369E+01 -3.5866537791E+01  1.8574683917E+02  5.0000000000E-01 0. 9.
 1000022    1    4    0    0    0  2.3340133595E+01 -1.0010271231E+02  2.5933601158E+02  3.0732973869E+02  1.2896157000E+02 0. 9.
      24    2    4    0    0    0  2.2072611943E+01  5.9946580780E+01  8.1597763350E+01  1.3117989073E+02  8.0431188000E+01 0. 9.
 1000022    1    5    0    0    0 -1.1454233342E+02  1.1858563063E+02 -4.9578030424E+02  5.3815582738E+02  1.2896157000E+02 0. 9.
     -24    2    5    0    0    0  5.5626474718E+01  7.7015719241E+01 -2.0588261055E+02  2.4058792785E+02  8.0431188000E+01 0. 9.
     -13    1    9    0    0    0  1.8957215794E+01  7.1560930971E+01  8.9981809389E+01  1.1652072801E+02  1.0566000000E-01 0. 9.
      14    1    9    0    0    0  3.1153961492E+00 -1.1614350191E+01 -8.3840460394E+00  1.4659162715E+01  0.0000000000E+00 0. 9.
       1    1   11    0  103    0  7.6161001797E+01  6.7778148298E+01 -1.6771129691E+02  1.9626911013E+02  3.3000000000E-01 0. 9.
      -2    1   11    0    0  103 -2.0534527078E+01  9.2375709428E+00 -3.8171313639E+01  4.4318817721E+01  3.3000000000E-01 0. 9.
</event>
<event>
    12   226  1.000000E+00  3.101898E+02  7.871429E-03  1.068878E-01
       2   -1    0    0  101    0  0.0000000000E+00  0.0000000000E+00  8.0948019217E+02  8.0948019217E+02  0.0000000000E+00 0. 9.
      -2   -1    0    0    0  101  0.0000000000E+00  0.0000000000E+00 -1.1896187077E+02  1.1896187077E+02  0.0000000000E+00 0. 9.
 1000024    2    1    2    0    0 -8.2779962754E+01 -1.3032710715E+02  3.5860395154E+02  4.7414606927E+02  2.6903535800E+02 0. 9.
-1000024    2    1    2    0    0  8.2779962754E+01  1.3032710715E+02  3.3191436986E+02  4.5429599367E+02  2.6903535800E+02 0. 9.
 1000022    1    3    0    0    0 -9.5008775473E+01 -1.5439842565E+02  2.2929369685E+02  3.1948744453E+02  1.2896157000E+02 0. 9.
      24    2    3    0    0    0  1.2228812719E+01  2.4071318509E+01  1.2931025468E+02  1.5465862473E+02  8.0431188000E+01 0. 9.
 1000022    1    4    0    0    0  9.5085260794E+01  4.7066317265E+01  9.9594074367E+01  1.9443896530E+02  1.2896157000E+02 0. 9.
     -24    2    4    0    0    0 -1.2305298040E+01  8.3260789881E+01  2.3232029550E+02  2.5985702837E+02  8.0431188000E+01 0. 9.
      -3    1    6    0    0  102  3.9048442983E+01  2.9899873586E+01  4.7585895682E+01  6.8435742180E+01  5.0000000000E-01 0. 9.
       4    1    6    0  102    0 -2.6819630264E+01 -5.8285550771E+00  8.1724359000E+01  8.6222882553E+01  1.5000000000E+00 0. 9.
       1    1    8    0  103    0 -6.2000522905E+00  4.1845682899E-01  1.1997845020E+02  1.2013972352E+02  3.3000000000E-01 0. 9.
      -2    1    8    0    0  103 -6.1052457496E+00  8.2842333052E+01  1.1234184530E+02  1.3971730486E+02  3.3000000000E-01 0. 9.
</event>
<event>
    12   226  1.000000E+00  3.063612E+02  7.870321E-03  1.070612E-01
      -1   -1    0    0    0  101  0.0000000000E+00  0.0000000000E+00  9.9830851468E+01  9.9830851468E+01  0.0000000000E+00 0. 9.
       1   -1    0    0  101    0  0.0000000000E+00  0.0000000000E+00 -9.6958442275E+02  9.6958442275E+02  0.0000000000E+00 0. 9.
 1000024    2    1    2    0    0 -1.3301361469E+02  6.1518610471E+01 -5.2802229040E+02  6.1046271315E+02  2.6903535800E+02 0. 9.
-1000024    2    1    2    0    0  1.3301361469E+02 -6.1518610471E+01 -3.4173128088E+02  4.5895256107E+02  2.6903535800E+02 0. 9.
 1000022    1    3    0    0    0 -1.8665616172E-02  6.7165022511E+01 -1.9825833354E+02  2.4586295766E+02  1.2896157000E+02 0. 9.
      24    2    3    0    0    0 -1.3299494907E+02 -5.6464120399E+00 -3.2976395687E+02  3.6459975548E+02  8.0431188000E+01 0. 9.
 1000022    1    4    0    0    0 -7.6404459469E+00 -3.9602220432E+01 -2.0646338345E+02  2.4674871331E+02  1.2896157000E+02 0. 9.
     -24    2    4    0    0    0  1.4065406064E+02 -2.1916390039E+01 -1.3526789743E+02  2.1220384776E+02  8.0431188000E+01 0. 9.
     -15    1    6    0    0    0 -8.5543421103E+01  1.6893388347E+01 -1.1992058272E+02  1.4828070459E+02  1.7770000000E+00 0. 9.
      16    1    6    0    0    0 -4.7451527972E+01 -2.2539800387E+01 -2.0984337415E+02  2.1631905090E+02  0.0000000000E+00 0. 9.
       1    1    8    0  102    0  9.7957056723E+01  7.6725198561E+00 -1.2542709850E+02  1.5933147354E+02  3.3000000000E-01 0. 9.
      -2    1    8    0    0  102  4.2697003915E+01 -2.9588909895E+01 -9.8407989311E+00  5.2872374220E+01  3.3000000000E-01 0. 9.
</event>
<event>
    12   226  1.000000E+00  4.372151E+02  7.902166E-03  1.023078E-01
       1   -1    0    0  101    0  0.0000000000E+00  0.0000000000E+00  6.4746319535E+02  6.4746319535E+02  0.0000000000E+00 0. 9.
      -1   -1    0    0    0  101  0.0000000000E+00  0.0000000000E+00 -3.4105934998E+02  3.4105934998E+02  0.0000000000E+00 0. 9.
-1000024    2    1    2    0    0  3.1116058898E+02 -1.4817602141E+02  3.3436337974E+02  5.5041433396E+02  2.6903535800E+02 0. 9.
 1000024    2    1    2    0    0 -3.1116058898E+02  1.4817602141E+02 -2.7959534372E+01  4.3810821138E+02  2.6903535800E+02 0. 9.
 1000022    1    3    0    0    0  2.5311107457E+02 -5.4020208592E+01  1.6571046235E+02  3.3327832644E+02  1.2896157000E+02 0. 9.
     -24    2    3    0    0    0  5.8049514413E+01 -9.4155812823E+01  1.6865291739E+02  2.1713600752E+02  8.0431188000E+01 0. 9.
 1000022    1    4    0    0    0 -9.8251844067E+01  7.9188529660E+01 -7.5486658877E+01  1.9558519959E+02  1.2896157000E+02 0. 9.
      24    2    4    0    0    0 -2.1290874492E+02  6.8987491755E+01  4.7527124505E+01  2.4252301179E+02  8.0431188000E+01 0. 9.
       1    1    6    0  102    0  6.3982924127E+01 -7.4527664469E+01  1.7026292203E+02  1.9656489735E+02  3.3000000000E-01 0. 9.
      -2    1    6    0    0  102 -5.9334097141E+00 -1.9628148354E+01 -1.6100046375E+00  2.0571110168E+01  3.3000000000E-01 0. 9.
      -3    1    8    0    0  103 -5.3108905168E+01 -1.7298110931E+01  1.6796402881E+01  5.8327948701E+01  5.0000000000E-01 0. 9.
       4    1    8    0  103    0 -1.5979983975E+02  8.6285602686E+01  3.0730721625E+01  1.8419506309E+02  1.5000000000E+00 0. 9.
</event>
<event>
    12   226  1.000000E+00  2.698549E+02  7.859023E-03  1.088657E-01
       2   -1    0    0  101    0  0.0000000000E+00  0.0000000000E+00  2.1195807394E+03  2.1195807394E+03  0.0000000000E+00 0. 9.
      -2   -1    0    0    0  101  0.0000000000E+00  0.0000000000E+00 -6.7616338070E+01  6.7616338070E+01  0.0000000000E+00 0. 9.
 1000024    2    1    2    0    0 -2.1012563663E+01 -3.4503493956E-01  2.5898945872E+02  3.7402835516E+02  2.6903535800E+02 0. 9.
-1000024    2    1    2    0    0  2.1012563663E+01  3.4503493956E-01  1.7929749426E+03  1.8131687223E+03  2.6903535800E+02 0. 9.
 1000022    1    3    0    0    0 -5.3364814656E+01 -4.4333595796E+01  7.1785995447E+01  1.6308766611E+02  1.2896157000E+02 0. 9.
      24    2    3    0    0    0  3.2352250993E+01  4.3988560857E+01  1.8720346327E+02  2.1094068904E+02  8.0431188000E+01 0. 9.
 1000022    1    4    0    0    0 -4.9973081913E+01  5.4575931814E+01  9.1453262034E+02  9.2654025355E+02  1.2896157000E+02 0. 9.
     -24    2    4    0    0    0  7.0985645576E+01 -5.4230896875E+01  8.7844232226E+02  8.8662846875E+02  8.0431188000E+01 0. 9.
      -1    1    6    0    0  102  4.4438558704E+01  6.0897136425E+01  1.3287650421E+02  1.5277277570E+02  3.3000000000E-01 0. 9.
       2    1    6    0  102    0 -1.2086307711E+01 -1.6908575568E+01  5.4326959057E+01  5.8167913339E+01  3.3000000000E-01 0. 9.
       3    1    8    0  103    0  3.3865120644E+01 -7.1555113643E+01  5.9041675931E+02  5.9570057945E+02  5.0000000000E-01 0. 9.
      -4    1    8    0    0  103  3.7120524932E+01  1.7324216768E+01  2.8802556296E+02  2.9092788930E+02  1.5000000000E+00 0. 9.
</event>
<event>
    12   230  1.000000E+00  4.764067E+02  7.909891E-03  1.012231E-01
       1   -1    0    0  101    0  0.0000000000E+00  0.0000000000E+00  5.8424921361E+02  5.8424921361E+02  0.0000000000E+00 0. 9.
      -2   -1    0    0    0  101  0.0000000000E+00  0.0000000000E+00 -3.9623352731E+02  3.9623352731E+02  0.0000000000E+00 0. 9.
 1000023    2    1    2    0    0 -7.6780691418E+01  3.8565062769E+02  1.6262170094E+02  5.0335952878E+02  2.6889276000E+02 0. 9.
-1000024    2    1    2    0    0  7.6780691418E+01 -3.8565062769E+02  2.5393985366E+01  4.7712321214E+02  2.6903535800E+02 0. 9.
 1000022    1    3    0    0    0 -1.7940153750E+01  2.5932426789E+02  1.7063230146E+02  3.3662649015E+02  1.2896157000E+02 0. 9.
      23    2    3    0    0    0 -5.8840537668E+01  1.2632635981E+02 -8.0106005266E+00  1.6673303863E+02  9.1187600000E+01 0. 9.
 1000022    1    4    0    0    0  6.3399778411E+01 -3.3005377439E+02  7.3386306704E+01  3.6738489686E+02  1.2896157000E+02 0. 9.
     -24    2    4    0    0    0  1.3380913007E+01 -5.5596853306E+01 -4.7992321338E+01  1.0973831528E+02  8.0431188000E+01 0. 9.
      11    1    6    0    0    0 -6.7337050000E+01  8.1431962913E+01  2.7127074081E+01  1.0909317593E+02  5.1000000000E-04 0. 9.
     -11    1    6    0    0    0  8.4965123323E+00  4.4894396893E+01 -3.5137674608E+01  5.7639862693E+01  5.1000000000E-04 0. 9.
       3    1    8    0  102    0 -1.0236997344E+01  3.6240326142E+00 -4.4565175000E+01  4.5871936408E+01  5.0000000000E-01 0. 9.
      -4    1    8    0    0  102  2.3617910351E+01 -5.9220885920E+01 -3.4271463383E+00  6.3866378874E+01  1.5000000000E+00 0. 9.
</event>
<event>
    18   244  1.000000E+00  8.714378E+02  7.964660E-03  9.419736E-02
      21   -1    0    0  101  102  0.0000000000E+00  0.0000000000E+00  7.4376555486E+02  7.4376555486E+02  0.0000000000E+00 0. 9.
      21   -1    0    0  102  103  0.0000000000E+00  0.0000000000E+00 -1.0214456645E+03  1.0214456645E+03  0.0000000000E+00 0. 9.
 1000021    2    1    2  101  104  5.9121813613E+01  8.7307926882E+01 -1.5673403122E+02  8.8542045773E+02  8.6503512500E+02 0. 9.
 1000021    2    1    2  104  103 -5.9121813613E+01 -8.7307926882E+01 -1.2094607846E+02  8.7979076167E+02  8.6503512500E+02 0. 9.
-1000024    2    3    0    0    0  2.2425480574E+02  4.4670478403E+01  2.0658119432E+02  4.0907393371E+02  2.6903535800E+02 0. 9.
       2    1    3    0  101    0  1.1312536979E+01  9.0001837255E+01 -2.3828397358E+02  2.5496600787E+02  3.3000000000E-01 0. 9.
      -1    1    3    0    0  104 -1.7644552910E+02 -4.7364388776E+01 -1.2503125196E+02  2.2138051615E+02  3.3000000000E-01 0. 9.
 1000023    2    4    0    0    0  2.6501427367E+01  2.3636815174E+02  1.8612636053E+02  4.0437429106E+02  2.6889276000E+02 0. 9.
       2    1    4    0  104    0 -1.4899343958E+01 -2.5793480337E+01 -1.0362149678E+02  1.0781844728E+02  3.3000000000E-01 0. 9.
      -2    1    4    0    0  103 -7.0723897022E+01 -2.9788259828E+02 -2.0345094221E+02  3.6759802333E+02  3.3000000000E-01 0. 9.
 1000022    1    5    0    0    0  1.9330162535E+02  9.6391706695E+01  1.6125273723E+02  2.9881501181E+02  1.2896157000E+02 0. 9.
     -24    2    5    0    0    0  3.0953180384E+01 -5.1721228292E+01  4.5328457099E+01  1.1025892190E+02  8.0431188000E+01 0. 9.
 1000022    1    8    0    0    0 -2.6070075841E+01  1.3091714785E+02  9.0834017600E+01  2.0664184897E+02  1.2896157000E+02 0. 9.
      25    2    8    0    0    0  5.2571503208E+01  1.0545100389E+02  9.5292342932E+01  1.9773244210E+02  1.2701893900E+02 0. 9.
       3    1   12    0  105    0 -1.9661525664E+01 -1.7534838932E+01 -9.6563839680E+00  2.8063177282E+01  5.0000000000E-01 0. 9.
      -4    1   12    0    0  105  5.0614706048E+01 -3.4186389361E+01  5.4984841067E+01  8.2195744616E+01  1.5000000000E+00 0. 9.
       5    1   14    0  106    0  2.4030527708E+01  1.2382063197E+02  1.0262526472E+02  1.6267759564E+02  4.8000000000E+00 0. 9.
      -5    1   14    0    0  106  2.8540975500E+01 -1.8369628077E+01 -7.3329217925E+00  3.5054846458E+01  4.8000000000E+00 0. 9.
</event>
<event>
    12   230  1.000000E+00  3.049929E+02  7.869922E-03  1.071239E-01
       2   -1    0    0  101    0  0.0000000000E+00  0.0000000000E+00  5.3687875253E+02  5.3687875253E+02  0.0000000000E+00 0. 9.
      -1   -1    0    0    0  101  0.0000000000E+00  0.0000000000E+00 -1.7393450840E+02  1.7393450840E+02  0.0000000000E+00 0. 9.
 1000024    2    1    2    0    0 -2.5603066305E+01 -1.4150444173E+02  2.0360872510E+02  3.6676363073E+02  2.6903535800E+02 0. 9.
 1000023    2    1    2    0    0  2.5603066305E+01  1.4150444173E+02  1.5933551904E+02  3.4404963020E+02  2.6889276000E+02 0. 9.
 1000022    1    3    0    0    0  6.8318483247E+01 -8.6775613452E+01  1.1032680545E+02  2.0248583353E+02  1.2896157000E+02 0. 9.
      24    2    3    0    0    0 -9.3921549553E+01 -5.4728828279E+01  9.3281919651E+01  1.6427779720E+02  8.0431188000E+01 0. 9.
 1000022    1    4    0    0    0  2.6469034968E+01  6.9252374127E+01  1.7155350788E+02  2.2706429428E+02  1.2896157000E+02 0. 9.
      23    2    4    0    0    0 -8.6596866265E-01  7.2252067604E+01 -1.2217988845E+01  1.1698533592E+02  9.1187600000E+01 0. 9.
      -1    1    6    0    0  102 -1.0383783661E+02 -3.9210276330E+01  5.9837500537E+01  1.2609669882E+02  3.3000000000E-01 0. 9.
       2    1    6    0  102    0  9.9162870592E+00 -1.5518551949E+01  3.3444419114E+01  3.8181098380E+01  3.3000000000E-01 0. 9.
       2    1    8    0  103    0 -2.1098455547E+01 -1.3672666903E+01  8.0735599498E+00  2.6407913908E+01  3.3000000000E-01 0. 9.
      -2    1    8    0    0  103  2.0232486884E+01  8.5924734507E+01 -2.0291548795E+01  9.0577422011E+01  3.3000000000E-01 0. 9.
</event>
<event>
    12   217  1.000000E+00  4.512584E+02  7.905009E-03  1.019057E-01
       2   -1    0    0  101    0  0.0000000000E+00  0.0000000000E+00  7.3960818740E+02  7.3960818740E+02  0.0000000000E+00 0. 9.
      -2   -1    0    0    0  101  0.0000000000E+00  0.0000000000E+00 -2.8613523359E+02  2.8613523359E+02  0.0000000000E+00 0. 9.
 1000023    2    1    2    0    0  2.1643328759E+01  3.6174905462E+02  1.2705837657E+02  4.6880482041E+02  2.6889276000E+02 0. 9.
 1000023    2    1    2    0    0 -2.1643328759E+01 -3.6174905462E+02  3.2641457724E+02  5.5693860058E+02  2.6889276000E+02 0. 9.
 1000022    1    3    0    0    0  4.6692805543E+01  2.0238342907E+02  8.7746684913E+01  2.5974956728E+02  1.2896157000E+02 0. 9.
      25    2    3    0    0    0 -2.5049476784E+01  1.5936562555E+02  3.9311691661E+01  2.0905525312E+02  1.2701893900E+02 0. 9.
 1000022    1    4    0    0    0  3.0444725465E+00 -2.1144408143E+02  2.2291452498E+02  3.3322641007E+02  1.2896157000E+02 0. 9.
      25    2    4    0    0    0 -2.4687801305E+01 -1.5030497319E+02  1.0350005226E+02  2.2371219051E+02  1.2701893900E+02 0. 9.
       5    1    6    0  102    0 -5.0821674486E+01  8.6685655321E+00  1.6869483203E+01  5.4457378650E+01  4.8000000000E+00 0. 9.
      -5    1    6    0    0  102  2.5772197702E+01  1.5069706002E+02  2.2442208458E+01  1.5459787447E+02  4.8000000000E+00 0. 9.
       5    1    8    0  103    0 -6.0960955167E+01 -2.3220672667E+01  4.3040813942E+01  7.8300634472E+01  4.8000000000E+00 0. 9.
      -5    1    8    0    0  103  3.6273153862E+01 -1.2708430052E+02  6.0459238319E+01  1.4541155604E+02  4.8000000000E+00 0. 9.
</event>
<event>
    24   259  1.000000E+00  1.089622E+03  7.985118E-03  9.183875E-02
      21   -1    0    0  101  102  0.0000000000E+00  0.0000000000E+00  7.9699888430E+02  7.9699888430E+02  0.0000000000E+00 0. 9.
       2   -1    0    0  102    0  0.0000000000E+00  0.0000000000E+00 -1.5105509724E+03  1.5105509724E+03  0.0000000000E+00 0. 9.
 1000021    2    1    2  101  103 -3.1993955111E+02  4.6843840780E+02 -4.8618895296E+02  1.1430053909E+03  8.6503512500E+02 0. 9.
 2000002    2    1    2  103    0  3.1993955111E+02 -4.6843840780E+02 -2.2736313512E+02  1.1645444657E+03  9.9129912700E+02 0. 9.
-1000024    2    3    0    0    0 -1.7268856665E+02  2.4842773648E+02 -7.5167786880E+01  4.1178623258E+02  2.6903535800E+02 0. 9.
       6    2    3    0  101    0  1.1423730286E+02 -1.2318874787E+01 -2.9852158865E+02  3.6375169406E+02  1.7320000000E+02 0. 9.
      -5    1    3    0    0  103 -2.6148828732E+02  2.3232954610E+02 -1.1249957743E+02  3.6746746430E+02  4.8000000000E+00 0. 9.
 1000021    2    4    0  103  104  3.2361211798E+02 -3.1163918024E+02 -2.4943942135E+02  1.0061558398E+03  8.6503512500E+02 0. 9.
       2    1    4    0  104    0 -3.6725668686E+00 -1.5679922756E+02  2.2076286233E+01  1.5838862593E+02  3.3000000000E-01 0. 9.
 1000022    1    5    0    0    0 -1.2529443939E+02  5.9899239914E+01 -3.5487375853E+00  1.8955288328E+02  1.2896157000E+02 0. 9.
     -24    2    5    0    0    0 -4.7394127262E+01  1.8852849657E+02 -7.1619049295E+01  2.2223334930E+02  8.0431188000E+01 0. 9.
      24    2    6    0    0    0  8.3536421095E+01  4.9781259649E+01 -1.2854320925E+02  1.8013617102E+02  8.0431188000E+01 0. 9.
       5    1    6    0  101    0  3.0700881769E+01 -6.2100134437E+01 -1.6997837940E+02  1.8361552304E+02  4.8000000000E+00 0. 9.
 1000024    2    8    0    0    0  1.6674068595E+02 -5.6134018476E+02 -2.5182513444E+02  6.9188234662E+02  2.6903535800E+02 0. 9.
      -2    1    8    0    0  104  5.2347942510E+01  1.3096979095E+02  4.9082116284E+01  1.4934040400E+02  3.3000000000E-01 0. 9.
       1    1    8    0  103    0  1.0452348952E+02  1.1873121357E+02 -4.6696403193E+01  1.6493308918E+02  3.3000000000E-01 0. 9.
       3    1   11    0  105    0 -6.5793264827E+01  1.7474876839E+02 -5.8253065873E+01  1.9560049958E+02  5.0000000000E-01 0. 9.
      -4    1   11    0    0  105  1.8399137564E+01  1.3779728179E+01 -1.3365983422E+01  2.6632849728E+01  1.5000000000E+00 0. 9.
      -3    1   12    0    0  106  2.5191539524E+01  4.0416703988E+01 -1.1473816392E+01  4.8990020284E+01  5.0000000000E-01 0. 9.
       4    1   12    0  106    0  5.8344881572E+01  9.3645556612E+00 -1.1706939285E+02  1.3114615073E+02  1.5000000000E+00 0. 9.
 1000022    1   14    0    0    0  1.0428684761E+02 -4.9686069596E+02 -2.0026986150E+02  5.6078998006E+02  1.2896157000E+02 0. 9.
      24    2   14    0    0    0  6.2453838346E+01 -6.4479488801E+01 -5.1555272941E+01  1.3109236656E+02  8.0431188000E+01 0. 9.
      -1    1   22    0    0  107  7.9108951390E+01 -4.0016260011E+01 -2.7113269132E+01  9.2707958225E+01  3.3000000000E-01 0. 9.
       2    1   22    0  107    0 -1.6655113044E+01 -2.4463228790E+01 -2.4442003809E+01  3.8384408339E+01  3.3000000000E-01 0. 9.
</event>
<event>
    19   273  1.000000E+00  1.037510E+03  7.980622E-03  9.234589E-02
       3   -1    0    0  101    0  0.0000000000E+00  0.0000000000E+00  1.5658908808E+03  1.5658908808E+03  0.0000000000E+00 0. 9.
       1   -1    0    0  102    0  0.0000000000E+00  0.0000000000E+00 -1.2654213614E+03  1.2654213614E+03  0.0000000000E+00 0. 9.
 1000003    2    1    2  102    0 -1.6133151430E+02  2.5362233504E+02  1.1070957284E+03  1.5181184730E+03  9.9431916400E+02 0. 9.
 2000001    2    1    2  101    0  1.6133151430E+02 -2.5362233504E+02 -8.0662620905E+02  1.3131937692E+03  9.9170554500E+02 0. 9.
-1000024    2    3    0    0    0 -1.2740894442E+02  6.0332431404E+02  8.4320499301E+02  1.0787066103E+03  2.6903535800E+02 0. 9.
       4    1    3    0  102    0 -3.3922569883E+01 -3.4970197899E+02  2.6389073540E+02  4.3941186270E+02  1.5000000000E+00 0. 9.
 1000021    2    4    0  101  103  1.4738452582E+02 -3.2434267605E+02 -8.1485429687E+02  1.2406424394E+03  8.6503512500E+02 0. 9.
       1    1    4    0  103    0  1.3946988479E+01  7.0720341001E+01  8.2280878141E+00  7.2551329747E+01  3.3000000000E-01 0. 9.
 1000022    1    5    0    0    0 -6.4745405094E+01  2.0672476163E+02  2.2948347596E+02  3.4091178746E+02  1.2896157000E+02 0. 9.
     -24    2    5    0    0    0 -6.2663539326E+01  3.9659955241E+02  6.1372151704E+02  7.3779482284E+02  8.0431188000E+01 0. 9.
 1000023    2    7    0    0    0 -5.9388972507E+01 -2.2724311657E+02 -4.7114275375E+02  5.9113898101E+02  2.6889276000E+02 0. 9.
       2    1    7    0  101    0 -1.6475319862E+01 -2.1156168044E+02 -3.3734994137E+02  3.9854092969E+02  3.3000000000E-01 0. 9.
      -2    1    7    0    0  103  2.2324881819E+02  1.1446212096E+02 -6.3616017486E+00  2.5096252875E+02  3.3000000000E-01 0. 9.
       3    1   10    0  104    0  6.0200527938E+00  9.8563797832E+01  1.0444294127E+02  1.4373462095E+02  5.0000000000E-01 0. 9.
      -2    1   10    0    0  104 -6.8683592119E+01  2.9803575458E+02  5.0927857577E+02  5.9406020189E+02  3.3000000000E-01 0. 9.
 1000022    1   11    0    0    0 -9.9222480256E+00 -8.3660109202E+01 -2.5593427036E+02  2.9871542003E+02  1.2896157000E+02 0. 9.
      25    2   11    0    0    0 -4.9466724482E+01 -1.4358300736E+02 -2.1520848338E+02  2.9242356099E+02  1.2701893900E+02 0. 9.
       5    1   17    0  105    0 -3.3291079599E+01  9.7066923979E+00 -1.1343046272E+01  3.6799735826E+01  4.8000000000E+00 0. 9.
      -5    1   17    0    0  105 -1.6175644883E+01 -1.5328969976E+02 -2.0386543711E+02  2.5562382516E+02  4.8000000000E+00 0. 9.
</event>
<event>
    12   230  1.000000E+00  2.980301E+02  7.867864E-03  1.074482E-01
       2   -1    0    0  101    0  0.0000000000E+00  0.0000000000E+00  4.5562161186E+02  4.5562161186E+02  0.0000000000E+00 0. 9.
      -1   -1    0    0    0  101  0.0000000000E+00  0.0000000000E+00 -2.6213600358E+02  2.6213600358E+02  0.0000000000E+00 0. 9.
 1000024    2    1    2    0    0 -7.4124033505E+01  1.0481359854E+02  2.7844981024E+02  4.0791492184E+02  2.6903535800E+02 0. 9.
 1000023    2    1    2    0    0  7.4124033505E+01 -1.0481359854E+02 -8.4964201963E+01  3.0984269360E+02  2.6889276000E+02 0. 9.
 1000022    1    3    0    0    0  3.0504304547E+01  4.9934681364E+00  1.2555612779E+02  1.8262221958E+02  1.2896157000E+02 0. 9.
      24    2    3    0    0    0 -1.0462833805E+02  9.9820130402E+01  1.5289368245E+02  2.2529270226E+02  8.0431188000E+01 0. 9.
 1000022    1    4    0    0    0  3.3671453878E+01 -9.4849256946E+01 -1.2082130477E+02  2.0336917803E+02  1.2896157000E+02 0. 9.
      23    2    4    0    0    0  4.0452579628E+01 -9.9643415923E+00  3.5857102809E+01  1.0647351557E+02  9.1187600000E+01 0. 9.
      -1    1    6    0    0  102 -1.0732532525E+01 -1.3683500114E+01  2.3422162874E+01  2.9174167400E+01  3.3000000000E-01 0. 9.
       2    1    6    0  102    0 -9.3895805528E+01  1.1350363052E+02  1.2947151957E+02  1.9611853486E+02  3.3000000000E-01 0. 9.
      11    1    8    0    0    0  1.5875636441E+01  3.1145807828E+01  4.5738591723E+01  5.7568358937E+01  5.1000000000E-04 0. 9.
     -11    1    8    0    0    0  2.4576943186E+01 -4.1110149420E+01 -9.8814889134E+00  4.8905156631E+01  5.1000000000E-04 0. 9.
</event>
<event>
    24   259  1.000000E+00  1.144090E+03  7.989599E-03  9.133948E-02
       2   -1    0    0  101    0  0.0000000000E+00  0.0000000000E+00  1.4995396429E+03  1.4995396429E+03  0.0000000000E+00 0. 9.
      21   -1    0    0  102  101  0.0000000000E+00  0.0000000000E+00 -8.7760613709E+02  8.7760613709E+02  0.0000000000E+00 0. 9.
 2000002    2    1    2  103    0 -1.6419088744E+02  6.4537060144E+02  2.2291436491E+02  1.2148360523E+03  9.9129912700E+02 0. 9.
 1000021    2    1    2  102  103  1.6419088744E+02 -6.4537060144E+02  3.9901914086E+02  1.1623097276E+03  8.6503512500E+02 0. 9.
 1000021    2    3    0  103  104 -1.0007137073E+02  4.6164146686E+02  2.5391734235E+02  1.0177852953E+03  8.6503512500E+02 0. 9.
       2    1    3    0  104    0 -6.4119516713E+01  1.8372913458E+02 -3.1002977434E+01  1.9705075698E+02  3.3000000000E-01 0. 9.
 1000024    2    4    0    0    0  1.8989247889E+01 -6.5441096437E+02  2.7858733984E+02  7.6066104908E+02  2.6903535800E+02 0. 9.
      -4    1    4    0    0  103  1.6444460978E+02 -9.1227149225E+01  1.9826307865E+02  2.7326712352E+02  1.5000000000E+00 0. 9.
       3    1    4    0  102    0 -1.9242970231E+01  1.0026751215E+02 -7.7831277631E+01  1.2838155504E+02  5.0000000000E-01 0. 9.
-1000024    2    5    0    0    0  2.1704329876E+01  2.2370586024E+02  1.9661122691E+02  4.0193455716E+02  2.6903535800E+02 0. 9.
       6    2    5    0  103    0 -1.9270138925E+02  1.6477055770E+02 -1.8113867393E+02  3.5650052076E+02  1.7320000000E+02 0. 9.
      -5    1    5    0    0  104  7.0925688650E+01  7.3165048925E+01  2.3844478937E+02  2.5935021741E+02  4.8000000000E+00 0. 9.
 1000022    1    7    0    0    0  8.4007088487E+01 -3.1152410566E+02  1.6712029062E+02  3.8557066460E+02  1.2896157000E+02 0. 9.
      24    2    7    0    0    0 -6.5017840598E+01 -3.4288685871E+02  1.1146704922E+02  3.7509038449E+02  8.0431188000E+01 0. 9.
 1000022    1   10    0    0    0  1.8593644928E-02  2.0082533652E+01  7.0128560153E+01  1.4816345700E+02  1.2896157000E+02 0. 9.
     -24    2   10    0    0    0  2.1685736231E+01  2.0362332658E+02  1.2648266676E+02  2.5377110017E+02  8.0431188000E+01 0. 9.
      24    2   11    0    0    0 -2.1275146237E+02  1.6369443831E+02 -1.8460056487E+02  3.3556757654E+02  8.0431188000E+01 0. 9.
       5    1   11    0  103    0  2.0050073111E+01  1.0761193911E+00  3.4618909355E+00  2.0932944216E+01  4.8000000000E+00 0. 9.
      -1    1   14    0    0  105 -1.2928191517E+01 -9.9193717814E+01 -4.7046129754E+00  1.0014376702E+02  3.3000000000E-01 0. 9.
       2    1   14    0  105    0 -5.2089649081E+01 -2.4369314089E+02  1.1617166219E+02  2.7494661747E+02  3.3000000000E-01 0. 9.
       1    1   16    0  106    0  4.9576840525E+01  1.3155726327E+02  6.4358125010E+01  1.5461970700E+02  3.3000000000E-01 0. 9.
      -2    1   16    0    0  106 -2.7891104294E+01  7.2066063311E+01  6.2124541751E+01  9.9151393170E+01  3.3000000000E-01 0. 9.
     -13    1   17    0    0    0 -1.2124227521E+02  1.2982606230E+02 -1.4848843163E+02  2.3152391073E+02  1.0566000000E-01 0. 9.
      14    1   17    0    0    0 -9.1509187153E+01  3.3868376008E+01 -3.6112133243E+01  1.0404366580E+02  0.0000000000E+00 0. 9.
</event>
<event>
    12   226  1.000000E+00  3.251353E+02  7.875629E-03  1.062358E-01
      -2   -1    0    0    0  101  0.0000000000E+00  0.0000000000E+00  1.0334561129E+02  1.0334561129E+02  0.0000000000E+00 0. 9.
       2   -1    0    0  101    0  0.0000000000E+00  0.0000000000E+00 -1.0616025324E+03  1.0616025324E+03  0.0000000000E+00 0. 9.
-1000024    2    1    2    0    0  5.0001828045E+01 -1.7559267339E+02 -3.6792363655E+02  4.9099979220E+02  2.6903535800E+02 0. 9.
 1000024    2    1    2    0    0 -5.0001828045E+01  1.7559267339E+02 -5.9033328452E+02  6.7394835145E+02  2.6903535800E+02 0. 9.
 1000022    1    3    0    0    0 -6.6835278641E+00 -1.3853697909E+02 -3.2756640982E+02  3.7837547952E+02  1.2896157000E+02 0. 9.
     -24    2    3    0    0    0  5.6685355909E+01 -3.7055694298E+01 -4.0357226722E+01  1.1262431268E+02  8.0431188000E+01 0. 9.
 1000022    1    4    0    0    0 -1.5983674114E+01  1.8252630803E+02 -3.2677838155E+02  3.9621525481E+02  1.2896157000E+02 0. 9.
      24    2    4    0    0    0 -3.4018153931E+01 -6.9336346365E+00 -2.6355490297E+02  2.7773309664E+02  8.0431188000E+01 0. 9.
       3    1    6    0  102    0  4.7723696940E+01 -1.0487804388E+01  1.4538238978E+01  5.0981915255E+01  5.0000000000E-01 0. 9.
      -2    1    6    0    0  102  8.9616589692E+00 -2.6567889910E+01 -5.4895465699E+01  6.1642397423E+01  3.3000000000E-01 0. 9.
      -1    1    8    0    0  103 -5.1162805466E+01 -2.8279113253E+01 -2.0351575985E+02  2.1174539976E+02  3.3000000000E-01 0. 9.
       2    1    8    0  103    0  1.7144651535E+01  2.1345478617E+01 -6.0039143117E+01  6.5987696883E+01  3.3000000000E-01 0. 9.
</event>
<event>
    16   258  1.000000E+00  1.027728E+03  7.979754E-03  9.244458E-02
       2   -1    0    0  101    0  0.0000000000E+00  0.0000000000E+00  1.0215139352E+03  1.0215139352E+03  0.0000000000E+00 0. 9.
      21   -1    0    0  102  101  0.0000000000E+00  0.0000000000E+00 -1.2857473221E+03  1.2857473221E+03  0.0000000000E+00 0. 9.
 1000002    2    1    2  103    0 -2.2968059322E+02 -3.7119472216E+02 -6.5111106083E+02  1.2639497992E+03  9.9150632100E+02 0. 9.
 1000021    2    1    2  102  103  2.2968059322E+02  3.7119472216E+02  3.8687767395E+02  1.0433114582E+03  8.6503512500E+02 0. 9.
 1000021    2    3    0  103  104 -1.0201961800E+02 -3.5761211286E+02 -6.3232078931E+02  1.1342000590E+03  8.6503512500E+02 0. 9.
       2    1    3    0  104    0 -1.2766097523E+02 -1.3582609301E+01 -1.8790271525E+01  1.2974974017E+02  3.3000000000E-01 0. 9.
 1000022    1    4    0    0    0  1.5941756176E+02  1.1692986565E+02  4.1358555668E+02  4.7620442219E+02  1.2896157000E+02 0. 9.
       4    1    4    0  102    0 -1.8220248681E+02  2.5532069116E+02 -2.4502643656E+01  3.1462522321E+02  1.5000000000E+00 0. 9.
      -4    1    4    0    0  103  2.5246551827E+02 -1.0558346487E+00 -2.2052390772E+00  2.5248181277E+02  1.5000000000E+00 0. 9.
 1000024    2    5    0    0    0 -1.4154331310E+02 -7.8378672061E+01 -4.4561755910E+02  5.4509885209E+02  2.6903535800E+02 0. 9.
      -4    1    5    0    0  104  1.5731721061E+02  7.0055005495E+01  7.6495417617E+00  1.7238669913E+02  1.5000000000E+00 0. 9.
       3    1    5    0  103    0 -1.1779351551E+02 -3.4928844629E+02 -1.9435277197E+02  4.1671450777E+02  5.0000000000E-01 0. 9.
 1000022    1   10    0    0    0 -5.2449258151E+01  1.3038793923E+00 -3.3713873725E+02  3.6475504037E+02  1.2896157000E+02 0. 9.
      24    2   10    0    0    0 -8.9094054945E+01 -7.9682551453E+01 -1.0847882184E+02  1.8034381172E+02  8.0431188000E+01 0. 9.
      -3    1   14    0    0  105 -9.6791192154E+01 -7.4098288927E+01 -1.1588899454E+02  1.6819512584E+02  5.0000000000E-01 0. 9.
       4    1   14    0  105    0  7.6971372097E+00 -5.5842625263E+00  7.4101726950E+00  1.2148685878E+01  1.5000000000E+00 0. 9.
</event>
<event>
    15   275  1.000000E+00  1.160704E+03  7.990924E-03  9.119295E-02
       2   -1    0    0  101    0  0.0000000000E+00  0.0000000000E+00  3.2011785819E+03  3.2011785819E+03  0.0000000000E+00 0. 9.
      -1   -1    0    0    0  101  0.0000000000E+00  0.0000000000E+00 -4.3561456330E+02  4.3561456330E+02  0.0000000000E+00 0. 9.
 2000002    2    1    2  102    0  6.0322967226E+02 -1.6434616490E+01  1.7172928363E+03  2.0726612793E+03  9.9129912700E+02 0. 9.
-2000001    2    1    2    0  102 -6.0322967226E+02  1.6434616490E+01  1.0482711823E+03  1.5641318658E+03  9.9170554500E+02 0. 9.
 1000022    1    3    0    0    0  1.8746621031E+02  4.6723636611E+02  6.9707309785E+02  8.6947995498E+02  1.2896157000E+02 0. 9.
       2    1    3    0  102    0  4.1576346195E+02 -4.8367098260E+02  1.0202197384E+03  1.2031813244E+03  3.3000000000E-01 0. 9.
 1000021    2    4    0  103  102 -4.5075964827E+02  8.0689766123E+01  9.8026640145E+02  1.3852447741E+03  8.6503512500E+02 0. 9.
      -1    1    4    0    0  103 -1.5247002400E+02 -6.4255149633E+01  6.8004780819E+01  1.7888709173E+02  3.3000000000E-01 0. 9.
 1000023    2    7    0    0    0 -3.9495702845E+02 -2.6750746293E+02  3.9971880937E+02  6.7795998407E+02  2.6889276000E+02 0. 9.
       4    1    7    0  103    0 -1.0219348673E+01  3.4189930145E+02  5.6144986437E+02  6.5744031487E+02  1.5000000000E+00 0. 9.
      -4    1    7    0    0  102 -4.5583271143E+01  6.2979276043E+00  1.9097727713E+01  4.9844475160E+01  1.5000000000E+00 0. 9.
 1000022    1    9    0    0    0 -1.9219062086E+02 -1.5811315315E+02  2.4798676476E+02  3.7425329121E+02  1.2896157000E+02 0. 9.
      25    2    9    0    0    0 -2.0276640759E+02 -1.0939430978E+02  1.5173204461E+02  3.0370669286E+02  1.2701893900E+02 0. 9.
     -15    1   13    0    0    0 -7.0110423854E+01  2.4000127010E+01  5.3933517599E+01  9.1670386053E+01  1.7770000000E+00 0. 9.
      15    1   13    0    0    0 -1.3265598374E+02 -1.3339443680E+02  9.7798527010E+01  2.1203630681E+02  1.7770000000E+00 0. 9.
</event>
<event>
    23   273  1.000000E+00  1.276037E+03  7.999642E-03  9.024169E-02
       2   -1    0    0  101    0  0.0000000000E+00  0.0000000000E+00  1.2965996780E+03  1.2965996780E+03  0.0000000000E+00 0. 9.
       2   -1    0    0  102    0  0.0000000000E+00  0.0000000000E+00 -1.2812749701E+03  1.2812749701E+03  0.0000000000E+00 0. 9.
 1000002    2    1    2  102    0 -1.5262390932E+02 -7.8873183096E+02  1.8940593365E+02  1.2900974192E+03  9.9150632100E+02 0. 9.
 2000002    2    1    2  101    0  1.5262390932E+02  7.8873183096E+02 -1.7408122581E+02  1.2877772289E+03  9.9129912700E+02 0. 9.
 1000024    2    3    0    0    0  2.0441650007E+02 -5.1790367138E+02  4.5630025006E+02  7.6850521168E+02  2.6903535800E+02 0. 9.
       1    1    3    0  102    0 -3.5704040939E+02 -2.7082815957E+02 -2.6689431641E+02  5.2159220756E+02  3.3000000000E-01 0. 9.
 1000021    2    4    0  101  103  1.2304096574E+02  5.5459858539E+02 -9.6616719245E+01  1.0393936829E+03  8.6503512500E+02 0. 9.
       2    1    4    0  103    0  2.9582943579E+01  2.3413324556E+02 -7.7464506565E+01  2.4838354596E+02  3.3000000000E-01 0. 9.
 1000022    1    5    0    0    0  1.0256045001E+02 -4.2151414683E+02  3.7393344790E+02  5.8706910316E+02  1.2896157000E+02 0. 9.
      24    2    5    0    0    0  1.0185605006E+02 -9.6389524551E+01  8.2366802151E+01  1.8143610853E+02  8.0431188000E+01 0. 9.
-1000024    2    7    0    0    0 -1.5464761555E+02  3.2505817206E+02  1.1768495095E+02  4.6455190426E+02  2.6903535800E+02 0. 9.
       6    2    7    0  101    0  3.5381172243E+00  1.4886386432E+02 -2.0101403635E+01  2.2929298900E+02  1.7320000000E+02 0. 9.
      -5    1    7    0    0  103  2.7415046406E+02  8.0676549011E+01 -1.9420026656E+02  3.4554878966E+02  4.8000000000E+00 0. 9.
      -3    1   10    0    0  104  2.2221909515E+00 -4.4466170723E+01  4.4280446282E+01  6.2794795918E+01  5.0000000000E-01 0. 9.
       4    1   10    0  104    0  9.9633859111E+01 -5.1923353828E+01  3.8086355868E+01  1.1864131261E+02  1.5000000000E+00 0. 9.
 1000022    1   11    0    0    0 -9.3904055146E+01  1.6275269935E+02  1.4709561985E+02  2.7124642050E+02  1.2896157000E+02 0. 9.
     -24    2   11    0    0    0 -6.0743560399E+01  1.6230547271E+02 -2.9410668906E+01  1.9330548375E+02  8.0431188000E+01 0. 9.
      24    2   12    0    0    0  2.6928700199E+01  1.7050575056E+02 -3.5268397025E+01  1.9367602253E+02  8.0431188000E+01 0. 9.
       5    1   12    0  101    0 -2.3390582975E+01 -2.1641886242E+01  1.5166993389E+01  3.5616966469E+01  4.8000000000E+00 0. 9.
       3    1   17    0  105    0 -1.0713890361E+00  2.9961670405E+01 -3.7361108564E+01  4.7905657297E+01  5.0000000000E-01 0. 9.
      -4    1   17    0    0  105 -5.9672171363E+01  1.3234380230E+02  7.9504396575E+00  1.4539982646E+02  1.5000000000E+00 0. 9.
      -3    1   18    0    0  106  1.6599044887E+01  1.0866015734E+02  1.8002409698E+01  1.1138624170E+02  5.0000000000E-01 0. 9.
       4    1   18    0  106    0  1.0329655312E+01  6.1845593221E+01 -5.3270806722E+01  8.2289780827E+01  1.5000000000E+00 0. 9.
</event>
<event>
    12   230  1.000000E+00  2.790457E+02  7.862002E-03  1.083835E-01
       2   -1    0    0  101    0  0.0000000000E+00  0.0000000000E+00  9.8309744341E+02  9.8309744341E+02  0.0000000000E+00 0. 9.
      -1   -1    0    0    0  101  0.0000000000E+00  0.0000000000E+00 -7.9977489384E+01  7.9977489384E+01  0.0000000000E+00 0. 9.
 1000024    2    1    2    0    0 -6.3873373357E+01 -3.8013179369E+01  3.9943927015E+02  4.8729515083E+02  2.6903535800E+02 0. 9.
 1000023    2    1    2    0    0  6.3873373357E+01  3.8013179369E+01  5.0368068387E+02  5.7577978196E+02  2.6889276000E+02 0. 9.
 1000022    1    3    0    0    0 -8.6245790407E+01  1.2781696360E+01  1.3742342032E+02  2.0764872047E+02  1.2896157000E+02 0. 9.
      24    2    3    0    0    0  2.2372417051E+01 -5.0794875729E+01  2.6201584984E+02  2.7964643036E+02  8.0431188000E+01 0. 9.
 1000022    1    4    0    0    0 -1.8552602806E+01  6.0612512273E+01  1.9078758128E+02  2.3884945766E+02  1.2896157000E+02 0. 9.
      23    2    4    0    0    0  8.2425976162E+01 -2.2599332903E+01  3.1289310259E+02  3.3693032430E+02  9.1187600000E+01 0. 9.
      -1    1    6    0    0  102  2.0400975205E+01 -2.7410296420E+00  9.6462756187E+00  2.2734831562E+01  3.3000000000E-01 0. 9.
       2    1    6    0  102    0  1.9714418455E+00 -4.8053846087E+01  2.5236957422E+02  2.5691159880E+02  3.3000000000E-01 0. 9.
       4    1    8    0  103    0  2.6575503602E+01 -4.1937238803E+01  2.2882611213E+02  2.3415513870E+02  1.5000000000E+00 0. 9.
      -4    1    8    0    0  103  5.5850472561E+01  1.9337905899E+01  8.4066990460E+01  1.0277518560E+02  1.5000000000E+00 0. 9.
</event>
<event>
    12   230  1.000000E+00  2.696558E+02  7.858958E-03  1.088764E-01
       2   -1    0    0  101    0  0.0000000000E+00  0.0000000000E+00  8.3359142690E+02  8.3359142690E+02  0.0000000000E+00 0. 9.
      -1   -1    0    0    0  101  0.0000000000E+00  0.0000000000E+00 -8.7235688760E+01  8.7235688760E+01  0.0000000000E+00 0. 9.
 1000024    2    1    2    0    0  9.7522061016E+00 -1.6657517318E+01  3.6958317491E+02  4.5754161061E+02  2.6903535800E+02 0. 9.
 1000023    2    1    2    0    0 -9.7522061016E+00  1.6657517318E+01  3.7677256323E+02  4.6328550505E+02  2.6889276000E+02 0. 9.
 1000022    1    3    0    0    0  3.0644890237E+01 -8.2661855711E+01  1.6591784025E+02  2.2788573439E+02  1.2896157000E+02 0. 9.
      24    2    3    0    0    0 -2.0892684135E+01  6.6004338393E+01  2.0366533467E+02  2.2965587622E+02  8.0431188000E+01 0. 9.
 1000022    1    4    0    0    0  2.2802323434E+01 -6.1856666047E+01  2.0851536187E+02  2.5388173578E+02  1.2896157000E+02 0. 9.
      23    2    4    0    0    0 -3.2554529536E+01  7.8514183366E+01  1.6825720136E+02  2.0940376927E+02  9.1187600000E+01 0. 9.
      -3    1    6    0    0  102  2.7991267930E+01  3.9743980253E+01  1.1747069565E+02  1.2713264484E+02  5.0000000000E-01 0. 9.
       4    1    6    0  102    0 -4.8883952065E+01  2.6260358140E+01  8.6194639011E+01  1.0252323138E+02  1.5000000000E+00 0. 9.
      15    1    8    0    0    0 -2.5255158633E+01  8.2642290983E+01  7.1239232124E+01  1.1200784445E+02  1.7770000000E+00 0. 9.
     -15    1    8    0    0    0 -7.2993709029E+00 -4.1281076176E+00  9.7017969232E+01  9.7395924817E+01  1.7770000000E+00 0. 9.
</event>
<event>
    28   259  1.000000E+00  9.384495E+02  7.971432E-03  9.340203E-02
       2   -1    0    0  101    0  0.0000000000E+00  0.0000000000E+00  9.0034103372E+02  9.0034103372E+02  0.0000000000E+00 0. 9.
      21   -1    0    0  102  101  0.0000000000E+00  0.0000000000E+00 -9.7387996519E+02  9.7387996519E+02  0.0000000000E+00 0. 9.
 2000002    2    1    2  103    0  7.1540724297E+01 -1.0044635473E+02 -4.6488526784E+01  1.0000213436E+03  9.9129912700E+02 0. 9.
 1000021    2    1    2  102  103 -7.1540724297E+01  1.0044635473E+02 -2.7050404687E+01  8.7419965528E+02  8.6503512500E+02 0. 9.
 1000021    2    3    0  103  104  1.0408919268E+02 -1.7411530762E+02 -1.1288096786E+02  8.9564422667E+02  8.6503512500E+02 0. 9.
       2    1    3    0  104    0 -3.2548468380E+01  7.3668952890E+01  6.6392441075E+01  1.0437711696E+02  3.3000000000E-01 0. 9.
 1000024    2    4    0    0    0  1.8201176909E+02 -2.5915100933E+01 -1.3441461403E+02  3.5248714709E+02  2.6903535800E+02 0. 9.
      -6    2    4    0    0  103 -2.7217971652E+01 -2.7376688058E+01 -7.5226046120E+01  1.9273686478E+02  1.7320000000E+02 0. 9.
       5    1    4    0  102    0 -2.2633452174E+02  1.5373814372E+02  1.8259025547E+02  3.2897564341E+02  4.8000000000E+00 0. 9.
-1000024    2    5    0    0    0  1.4020468553E+02  1.9518472431E+02 -1.2290780578E+02  3.8110468775E+02  2.6903535800E+02 0. 9.
       6    2    5    0  103    0  5.9642025556E+00 -3.9767991212E+01  3.5521062186E+01  1.8132029863E+02  1.7320000000E+02 0. 9.
      -5    1    5    0    0  104 -4.2079695406E+01 -3.2953204072E+02 -2.5494224268E+01  3.3321924029E+02  4.8000000000E+00 0. 9.
 1000022    1    7    0    0    0  1.2926464935E+02 -9.6374330115E+01 -9.0434791262E+01  2.2540385774E+02  1.2896157000E+02 0. 9.
      24    2    7    0    0    0  5.2747119740E+01  7.0459229182E+01 -4.3979822771E+01  1.2708328935E+02  8.0431188000E+01 0. 9.
     -24    2    8    0    0    0  3.1580771487E+01  3.3205423704E+01 -3.3530525202E+01  9.8455154332E+01  8.0431188000E+01 0. 9.
      -5    1    8    0    0  103 -5.8798743138E+01 -6.0582111762E+01 -4.1695520918E+01  9.4281710447E+01  4.8000000000E+00 0. 9.
 1000022    1   10    0    0    0  7.0306753820E+01  1.7822275697E+02 -1.4259327810E+02  2.7142277029E+02  1.2896157000E+02 0. 9.
     -24    2   10    0    0    0  6.9897931708E+01  1.6961967339E+01  1.9685472327E+01  1.0968191746E+02  8.0431188000E+01 0. 9.
      24    2   11    0    0    0 -1.8630425471E+01 -8.8678287612E+01  1.2739052714E+01  1.2182935161E+02  8.0431188000E+01 0. 9.
       5    1   11    0  103    0  2.4594628027E+01  4.8910296400E+01  2.2782009472E+01  5.9490947020E+01  4.8000000000E+00 0. 9.
      -1    1   14    0    0  105  4.8373352626E+00  7.1039755926E+01 -2.3591305971E+01  7.5011368151E+01  3.3000000000E-01 0. 9.
       2    1   14    0  105    0  4.7909784478E+01 -5.8052674392E-01 -2.0388516799E+01  5.2071921198E+01  3.3000000000E-01 0. 9.
       3    1   15    0  106    0  3.5270004532E+01 -4.9910616333E+00 -4.5905319086E+01  5.8107075613E+01  5.0000000000E-01 0. 9.
      -4    1   15    0    0  106 -3.6892330455E+00  3.8196485337E+01  1.2374793884E+01  4.0348078718E+01  1.5000000000E+00 0. 9.
       1    1   18    0  107    0  7.0564650634E+01 -1.8080158107E+01  1.2746605208E+01  7.3951652319E+01  3.3000000000E-01 0. 9.
      -2    1   18    0    0  107 -6.6671892595E-01  3.5042125447E+01  6.9388671187E+00  3.5730265138E+01  3.3000000000E-01 0. 9.
      -1    1   19    0    0  108 -3.1242629434E+01 -2.3185797916E+01 -2.3955436645E+01  4.5690863023E+01  3.3000000000E-01 0. 9.
       4    1   19    0  108    0  1.2612203962E+01 -6.5492489696E+01  3.6694489359E+01  7.6138488589E+01  1.5000000000E+00 0. 9.
</event>
<event>
    19   271  1.000000E+00  1.024001E+03  7.979421E-03  9.248248E-02
       2   -1    0    0  101    0  0.0000000000E+00  0.0000000000E+00  1.2403634206E+03  1.2403634206E+03  0.0000000000E+00 0. 9.
       2   -1    0    0  102    0  0.0000000000E+00  0.0000000000E+00 -9.6610835248E+02  9.6610835248E+02  0.0000000000E+00 0. 9.
 1000002    2    1    2  102    0 -1.6726611591E+02  1.9368642162E+02  5.2712512708E+02  1.1517109306E+03  9.9150632100E+02 0. 9.
 1000002    2    1    2  101    0  1.6726611591E+02 -1.9368642162E+02 -2.5287005900E+02  1.0547608425E+03  9.9150632100E+02 0. 9.
 1000021    2    3    0  102  103 -7.0867568583E+01  2.5879182484E+02  4.4353055204E+02  1.0084644461E+03  8.6503512500E+02 0. 9.
       2    1    3    0  103    0 -9.6398547322E+01 -6.5105403221E+01  8.3594575040E+01  1.4324648453E+02  3.3000000000E-01 0. 9.
 1000024    2    4    0    0    0  1.4637280702E+02 -1.1563878078E+02  3.3086792797E+02  4.6545777023E+02  2.6903535800E+02 0. 9.
       1    1    4    0  101    0  2.0893308881E+01 -7.8047640838E+01 -5.8373798697E+02  5.8930307222E+02  3.3000000000E-01 0. 9.
 1000023    2    5    0    0    0 -1.4269509424E+02 -8.2461387649E+01  3.2547626690E+02  4.5321064316E+02  2.6889276000E+02 0. 9.
       1    1    5    0  102    0 -7.1368057986E+01  3.6999128107E+02  1.6135140410E+01  3.7715699573E+02  3.3000000000E-01 0. 9.
      -1    1    5    0    0  103  1.4319558365E+02 -2.8738068583E+01  1.0191914473E+02  1.7809680717E+02  3.3000000000E-01 0. 9.
 1000022    1    7    0    0    0  1.2909531632E+01 -4.0431646800E+00  1.7839976760E+02  2.2054606504E+02  1.2896157000E+02 0. 9.
      24    2    7    0    0    0  1.3346327539E+02 -1.1159561610E+02  1.5246816037E+02  2.4491170519E+02  8.0431188000E+01 0. 9.
 1000022    1    9    0    0    0 -9.0877973407E+01 -7.0188055187E+01  2.2033822668E+02  2.7993783205E+02  1.2896157000E+02 0. 9.
      25    2    9    0    0    0 -5.1817120837E+01 -1.2273332462E+01  1.0513804022E+02  1.7327281111E+02  1.2701893900E+02 0. 9.
     -11    1   13    0    0    0  1.3606785979E+02 -8.3492930933E+01  1.4512944967E+02  2.1575006175E+02  5.1000000000E-04 0. 9.
      12    1   13    0    0    0 -2.6045844004E+00 -2.8102685168E+01  7.3387107021E+00  2.9161643443E+01  0.0000000000E+00 0. 9.
       5    1   15    0  104    0  2.3931887930E+01 -2.7863345817E+01 -6.2688206179E+00  3.7569128443E+01  4.8000000000E+00 0. 9.
      -5    1   15    0    0  104 -7.5749008767E+01  1.5590013355E+01  1.1140686084E+02  1.3570368266E+02  4.8000000000E+00 0. 9.
</event>
<event>
    26   244  1.000000E+00  9.214261E+02  7.969757E-03  9.359730E-02
      21   -1    0    0  101  102  0.0000000000E+00  0.0000000000E+00  1.0025313098E+03  1.0025313098E+03  0.0000000000E+00 0. 9.
      21   -1    0    0  103  104  0.0000000000E+00  0.0000000000E+00 -8.6085734409E+02  8.6085734409E+02  0.0000000000E+00 0. 9.
 1000021    2    1    2  101  104 -3.1731504757E+02 -7.1767701276E+00 -4.7871849276E+01  9.2266886090E+02  8.6503512500E+02 0. 9.
 1000021    2    1    2  103  102  3.1731504757E+02  7.1767701276E+00  1.8954581498E+02  9.4071979298E+02  8.6503512500E+02 0. 9.
-1000024    2    3    0    0    0  7.0168544404E+00  2.1643359034E+02 -1.5581664141E+01  3.4571020723E+02  2.6903535800E+02 0. 9.
       6    2    3    0  101    0 -9.0433984967E+01 -6.8763243931E+00  1.1375694909E+02  2.2619565191E+02  1.7320000000E+02 0. 9.
      -5    1    3    0    0  104 -2.3389791704E+02 -2.1673403608E+02 -1.4604713423E+02  3.5076300176E+02  4.8000000000E+00 0. 9.
 1000022    1    4    0    0    0  3.9083174867E+01  2.0710443712E+01  2.2732738584E+02  2.6507592106E+02  1.2896157000E+02 0. 9.
       6    2    4    0  103    0  5.4039454177E+01 -2.1335208554E+02 -1.4149586259E+02  3.1378128392E+02  1.7320000000E+02 0. 9.
      -6    2    4    0    0  102  2.2419241852E+02  1.9981841195E+02  1.0371429173E+02  3.6186258799E+02  1.7320000000E+02 0. 9.
 1000022    1    5    0    0    0 -6.5892415918E+01  6.6808322856E+01  5.9733590615E+00  1.5959927955E+02  1.2896157000E+02 0. 9.
     -24    2    5    0    0    0  7.2909270358E+01  1.4962526748E+02 -2.1555023203E+01  1.8611092768E+02  8.0431188000E+01 0. 9.
      24    2    6    0    0    0  2.6891030462E+00 -1.9146083988E+01  5.6666421396E+00  8.2916166358E+01  8.0431188000E+01 0. 9.
       5    1    6    0  101    0 -9.3123088014E+01  1.2269759594E+01  1.0809030695E+02  1.4327948555E+02  4.8000000000E+00 0. 9.
      24    2    9    0    0    0 -3.6543506942E+01 -1.1188260517E+02 -8.8069408396E+01  1.6756652988E+02  8.0431188000E+01 0. 9.
       5    1    9    0  103    0  9.0582961119E+01 -1.0146948037E+02 -5.3426454195E+01  1.4621475404E+02  4.8000000000E+00 0. 9.
     -24    2   10    0    0    0  9.3164388559E+01  1.1756045585E+02  1.1695673998E+02  2.0651421042E+02  8.0431188000E+01 0. 9.
      -5    1   10    0    0  102  1.3102802997E+02  8.2257956107E+01 -1.3242448250E+01  1.5534837758E+02  4.8000000000E+00 0. 9.
       1    1   12    0  105    0  4.0382239514E+01  9.7853876517E+01  2.5583616869E+01  1.0890700974E+02  3.3000000000E-01 0. 9.
      -2    1   12    0    0  105  3.2527030844E+01  5.1771390968E+01 -4.7138640072E+01  7.7203917945E+01  3.3000000000E-01 0. 9.
     -15    1   13    0    0    0 -9.7212812119E+00 -6.8383271095E+00  4.1415149856E+01  4.3123524817E+01  1.7770000000E+00 0. 9.
      16    1   13    0    0    0  1.2410384258E+01 -1.2307756878E+01 -3.5748507717E+01  3.9792641540E+01  0.0000000000E+00 0. 9.
      -1    1   15    0    0  106 -4.0275432611E+01 -1.1523218722E+01 -3.0361213371E+01  5.1737870260E+01  3.3000000000E-01 0. 9.
       2    1   15    0  106    0  3.7319256688E+00 -1.0035938645E+02 -5.7708195025E+01  1.1582865962E+02  3.3000000000E-01 0. 9.
       3    1   17    0  107    0  7.5334569564E+00 -1.0095117423E+01 -1.1499783611E+00  1.2658468301E+01  5.0000000000E-01 0. 9.
      -4    1   17    0    0  107  8.5630931602E+01  1.2765557327E+02  1.1810671834E+02  1.9385574212E+02  1.5000000000E+00 0. 9.
</event>
<event>
    12   226  1.000000E+00  2.840107E+02  7.863572E-03  1.081313E-01
      -2   -1    0    0    0  101  0.0000000000E+00  0.0000000000E+00  1.3370202789E+02  1.3370202789E+02  0.0000000000E+00 0. 9.
       2   -1    0    0  101    0  0.0000000000E+00  0.0000000000E+00 -6.1832184514E+02  6.1832184514E+02  0.0000000000E+00 0. 9.
-1000024    2    1    2    0    0  8.1195125574E+01 -4.1102122052E+01 -3.0092328009E+02  4.1378361157E+02  2.6903535800E+02 0. 9.
 1000024    2    1    2    0    0 -8.1195125574E+01  4.1102122052E+01 -1.8369653716E+02  3.3824026146E+02  2.6903535800E+02 0. 9.
 1000022    1    3    0    0    0  1.9243778737E+01 -8.2873400346E+01 -9.7680054484E+01  1.8278622236E+02  1.2896157000E+02 0. 9.
     -24    2    3    0    0    0  6.1951346837E+01  4.1771278294E+01 -2.0324322560E+02  2.3099738921E+02  8.0431188000E+01 0. 9.
 1000022    1    4    0    0    0 -5.6417841257E+01 -5.9186765466E+01 -1.0768893836E+02  1.8685299035E+02  1.2896157000E+02 0. 9.
      24    2    4    0    0    0 -2.4777284317E+01  1.0028888752E+02 -7.6007598795E+01  1.5138727111E+02  8.0431188000E+01 0. 9.
       3    1    6    0  102    0  8.0045007720E+01  2.9115271995E+01 -1.3871098386E+02  1.6277557976E+02  5.0000000000E-01 0. 9.
      -4    1    6    0    0  102 -1.8093660884E+01  1.2656006299E+01 -6.4532241743E+01  6.8221809445E+01  1.5000000000E+00 0. 9.
     -11    1    8    0    0    0 -1.3043399526E+01  2.1862615103E+01 -6.6883720452E+01  7.1564909503E+01  5.1000000000E-04 0. 9.
      12    1    8    0    0    0 -1.1733884791E+01  7.8426272415E+01 -9.1238783425E+00  7.9822361611E+01  0.0000000000E+00 0. 9.
</event>
<event>
    12   226  1.000000E+00  3.042170E+02  7.869695E-03  1.071596E-01
       1   -1    0    0  101    0  0.0000000000E+00  0.0000000000E+00  2.0420819421E+02  2.0420819421E+02  0.0000000000E+00 0. 9.
      -1   -1    0    0    0  101  0.0000000000E+00  0.0000000000E+00 -5.2131666521E+02  5.2131666521E+02  0.0000000000E+00 0. 9.
-1000024    2    1    2    0    0  8.8920318737E+01  1.1072989502E+02 -2.7429190158E+01  3.0545100599E+02  2.6903535800E+02 0. 9.
 1000024    2    1    2    0    0 -8.8920318737E+01 -1.1072989502E+02 -2.8967928084E+02  4.2007385343E+02  2.6903535800E+02 0. 9.
 1000022    1    3    0    0    0  1.3675014997E+01  6.1899491990E+01 -9.0135706353E+01  1.6962925821E+02  1.2896157000E+02 0. 9.
     -24    2    3    0    0    0  7.5245303740E+01  4.8830403026E+01  6.2706516195E+01  1.3582174778E+02  8.0431188000E+01 0. 9.
 1000022    1    4    0    0    0 -5.3376247781E+01 -1.2542910301E+02 -2.6994706091E+02  3.2876129021E+02  1.2896157000E+02 0. 9.
      24    2    4    0    0    0 -3.5544070956E+01  1.4699207989E+01 -1.9732219925E+01  9.1312563221E+01  8.0431188000E+01 0. 9.
      13    1    6    0    0    0  6.2111019608E+00 -1.6415145028E+01 -6.0455680142E+00  1.8563265620E+01  1.0566000000E-01 0. 9.
     -14    1    6    0    0    0  6.9034201779E+01  6.5245548054E+01  6.8752084209E+01  1.1725848216E+02  0.0000000000E+00 0. 9.
     -11    1    8    0    0    0  6.6833230847E+00  3.6967694916E+01  4.3942181837E+00  3.7823093852E+01  5.1000000000E-04 0. 9.
      12    1    8    0    0    0 -4.2227394041E+01 -2.2268486927E+01 -2.4126438109E+01  5.3489469368E+01  0.0000000000E+00 0. 9.
</event>
<event>
    24   259  1.000000E+00  9.628572E+02  7.973781E-03  9.312950E-02
       1   -1    0    0  101    0  0.0000000000E+00  0.0000000000E+00  2.0816458439E+03  2.0816458439E+03  0.0000000000E+00 0. 9.
      21   -1    0    0  102  101  0.0000000000E+00  0.0000000000E+00 -5.4072986682E+02  5.4072986682E+02  0.0000000000E+00 0. 9.
 2000001    2    1    2  103    0 -1.0868721299E+02 -2.2225733306E+02  1.3655868953E+03  1.7057311303E+03  9.9170554500E+02 0. 9.
 1000021    2    1    2  102  103  1.0868721299E+02  2.2225733306E+02  1.7532908178E+02  9.1664458040E+02  8.6503512500E+02 0. 9.
 1000021    2    3    0  103  104  1.1805467195E+01 -2.2580469491E+02  1.2629938335E+03  1.5474386321E+03  8.6503512500E+02 0. 9.
       1    1    3    0  104    0 -1.2049268018E+02  3.5473618503E+00  1.0259306182E+02  1.5829249820E+02  3.3000000000E-01 0. 9.
-1000024    2    4    0    0    0  2.8840091797E+02  2.0258052821E+02  9.0923447367E+01  4.5261579406E+02  2.6903535800E+02 0. 9.
       6    2    4    0  102    0 -2.0555369013E+02 -3.0995520946E+01  1.9908656859E+02  3.3592669385E+02  1.7320000000E+02 0. 9.
      -5    1    4    0    0  103  2.5839985153E+01  5.0672325797E+01 -1.1468093418E+02  1.2810209249E+02  4.8000000000E+00 0. 9.
 1000023    2    5    0    0    0 -7.7641993607E+00 -6.2871407333E+01  7.8107566156E+01  2.8708396842E+02  2.6889276000E+02 0. 9.
       2    1    5    0  103    0  4.1677335877E+01  1.1453441220E+02  1.7819173747E+02  2.1588778591E+02  3.3000000000E-01 0. 9.
      -2    1    5    0    0  104 -2.2107669321E+01 -2.7746769979E+02  1.0066945298E+03  1.0444668778E+03  3.3000000000E-01 0. 9.
 1000022    1    7    0    0    0  1.9715057355E+02  1.8991751388E+02  4.0924591176E+00  3.0262988201E+02  1.2896157000E+02 0. 9.
     -24    2    7    0    0    0  9.1250344422E+01  1.2663014334E+01  8.6830988250E+01  1.4998591205E+02  8.0431188000E+01 0. 9.
      24    2    8    0    0    0 -2.2818729822E+02 -3.7877611736E+01  1.9065060926E+02  3.1035622654E+02  8.0431188000E+01 0. 9.
       5    1    8    0  102    0  2.2633608083E+01  6.8820907903E+00  8.4359593352E+00  2.5570467309E+01  4.8000000000E+00 0. 9.
 1000022    1   10    0    0    0  1.2836402822E+01 -7.0062609017E+01  3.8938618818E+01  1.5238387379E+02  1.2896157000E+02 0. 9.
      25    2   10    0    0    0 -2.0600602183E+01  7.1912016848E+00  3.9168947338E+01  1.3470009463E+02  1.2701893900E+02 0. 9.
       1    1   14    0  105    0 -1.1579023808E+01  1.5381408899E+01  1.0856123730E+01  2.2104883046E+01  3.3000000000E-01 0. 9.
      -2    1   14    0    0  105  1.0282936823E+02 -2.7183945648E+00  7.5974864519E+01  1.2788102900E+02  3.3000000000E-01 0. 9.
      -3    1   15    0    0  106 -1.1990492945E+02 -8.7905281711E+00  1.4730053855E+02  1.9013722452E+02  5.0000000000E-01 0. 9.
       4    1   15    0  106    0 -1.0828236876E+02 -2.9087083565E+01  4.3350070710E+01  1.2021900202E+02  1.5000000000E+00 0. 9.
       5    1   18    0  107    0 -5.7975550706E+01 -1.7970378461E+01 -1.6345320281E+01  6.3042116690E+01  4.8000000000E+00 0. 9.
      -5    1   18    0    0  107  3.7374948523E+01  2.5161580146E+01  5.5514267620E+01  7.1657977936E+01  4.8000000000E+00 0. 9.
</event>
<event>
    21   258  1.000000E+00  1.074169E+03  7.983808E-03  9.198598E-02
      21   -1    0    0  101  102  0.0000000000E+00  0.0000000000E+00  8.2390956994E+02  8.2390956994E+02  0.0000000000E+00 0. 9.
       2   -1    0    0  102    0  0.0000000000E+00  0.0000000000E+00 -1.4780807096E+03  1.4780807096E+03  0.0000000000E+00 0. 9.
 1000021    2    1    2  101  103 -3.8008185333E+02  3.7906777676E+02 -5.8087909092E+02  1.1721181171E+03  8.6503512500E+02 0. 9.
 1000002    2    1    2  103    0  3.8008185333E+02 -3.7906777676E+02 -7.3292048781E+01  1.1298721625E+03  9.9150632100E+02 0. 9.
-1000024    2    3    0    0    0 -1.8628871229E+02  3.4029456500E+02 -2.0824390124E+02  5.1599362549E+02  2.6903535800E+02 0. 9.
       6    2    3    0  101    0 -8.3062200024E+01  2.0902114783E+02 -7.1280163236E+01  2.9269142622E+02  1.7320000000E+02 0. 9.
      -5    1    3    0    0  103 -1.1073094102E+02 -1.7024793606E+02 -3.0135502644E+02  3.6343306535E+02  4.8000000000E+00 0. 9.
 1000023    2    4    0    0    0  5.0604755445E+02 -3.3342571197E+02  3.0409596973E+02  7.2940695634E+02  2.6889276000E+02 0. 9.
       2    1    4    0  103    0 -1.2596570112E+02 -4.5642064794E+01 -3.7738801851E+02  4.0046520617E+02  3.3000000000E-01 0. 9.
 1000022    1    5    0    0    0 -2.7458567286E+01  1.7758965876E+02 -1.5188488707E+02  2.6831355776E+02  1.2896157000E+02 0. 9.
     -24    2    5    0    0    0 -1.5883014500E+02  1.6270490623E+02 -5.6359014168E+01  2.4768006774E+02  8.0431188000E+01 0. 9.
      24    2    6    0    0    0 -1.1235915338E+02  1.3290785216E+02 -8.5222551133E+01  2.0981214393E+02  8.0431188000E+01 0. 9.
       5    1    6    0  101    0  2.9296953356E+01  7.6113295669E+01  1.3942387897E+01  8.2879282296E+01  4.8000000000E+00 0. 9.
 1000022    1    8    0    0    0  2.9569668996E+02 -1.5124220743E+02  1.4563458081E+02  3.8490421591E+02  1.2896157000E+02 0. 9.
      25    2    8    0    0    0  2.1035086449E+02 -1.8218350454E+02  1.5846138892E+02  3.4450274043E+02  1.2701893900E+02 0. 9.
       1    1   11    0  104    0 -1.6050649746E+02  1.6993201017E+02 -5.4918506333E+01  2.4011533696E+02  3.3000000000E-01 0. 9.
      -2    1   11    0    0  104  1.6763524539E+00 -7.2271039387E+00 -1.4405078359E+00  7.5647307762E+00  3.3000000000E-01 0. 9.
      -1    1   12    0    0  105 -1.2378614137E+02  1.1145074245E+02 -6.7658654597E+01  1.7978342312E+02  3.3000000000E-01 0. 9.
       4    1   12    0  105    0  1.1426987988E+01  2.1457109710E+01 -1.7563896536E+01  3.0028720804E+01  1.5000000000E+00 0. 9.
       5    1   15    0  106    0  1.4283349887E+02 -9.0338303766E+01  2.8315130094E+01  1.7142696439E+02  4.8000000000E+00 0. 9.
      -5    1   15    0    0  106  6.7517365623E+01 -9.1845200777E+01  1.3014625883E+02  1.7307577604E+02  4.8000000000E+00 0. 9.
</event>
<event>
    12   230  1.000000E+00  4.184388E+02  7.898222E-03  1.028715E-01
      -1   -1    0    0    0  101  0.0000000000E+00  0.0000000000E+00  1.3451895615E+02  1.3451895615E+02  0.0000000000E+00 0. 9.
       2   -1    0    0  101    0  0.0000000000E+00  0.0000000000E+00 -1.3845178616E+03  1.3845178616E+03  0.0000000000E+00 0. 9.
 1000023    2    1    2    0    0  2.9936217488E+02  1.1459338698E+02 -4.3907307456E+02  6.0649636213E+02  2.6889276000E+02 0. 9.
 1000024    2    1    2    0    0 -2.9936217488E+02 -1.1459338698E+02 -8.1092583094E+02  9.1254045567E+02  2.6903535800E+02 0. 9.
 1000022    1    3    0    0    0  1.5452557206E+02  2.3665139710E+01 -1.2706649444E+02  2.3919693101E+02  1.2896157000E+02 0. 9.
      23    2    3    0    0    0  1.4483660283E+02  9.0928247271E+01 -3.1200658012E+02  3.6729943112E+02  9.1187600000E+01 0. 9.
 1000022    1    4    0    0    0 -8.4021385544E+01 -2.6882728925E+01 -1.9904066042E+02  2.5304257622E+02  1.2896157000E+02 0. 9.
      24    2    4    0    0    0 -2.1534078934E+02 -8.7710658056E+01 -6.1188517052E+02  6.5949787945E+02  8.0431188000E+01 0. 9.
      14    1    6    0    0    0  1.0550221938E+02  1.6950637989E+01 -2.0709502841E+02  2.3303732151E+02  0.0000000000E+00 0. 9.
     -14    1    6    0    0    0  3.9334383445E+01  7.3977609282E+01 -1.0491155171E+02  1.3426210961E+02  0.0000000000E+00 0. 9.
     -15    1    8    0    0    0 -1.9618180635E+02 -9.7913242521E+01 -5.0687547277E+02  5.5226823811E+02  1.7770000000E+00 0. 9.
      16    1    8    0    0    0 -1.9158982986E+01  1.0202584465E+01 -1.0500969775E+02  1.0722964133E+02  0.0000000000E+00 0. 9.
</event>
<event>
    12   226  1.000000E+00  2.830444E+02  7.863269E-03  1.081799E-01
       2   -1    0    0  101    0  0.0000000000E+00  0.0000000000E+00  1.2533996701E+03  1.2533996701E+03  0.0000000000E+00 0. 9.
      -2   -1    0    0    0  101  0.0000000000E+00  0.0000000000E+00 -8.6008128059E+01  8.6008128059E+01  0.0000000000E+00 0. 9.
 1000024    2    1    2    0    0  1.7728208393E+01  8.6138217717E+01  9.2310030683E+02  9.6551969542E+02  2.6903535800E+02 0. 9.
-1000024    2    1    2    0    0 -1.7728208393E+01 -8.6138217717E+01  2.4429123525E+02  3.7388810278E+02  2.6903535800E+02 0. 9.
 1000022    1    3    0    0    0  6.1257466679E+01 -8.0235905277E+00  5.9931539032E+02  6.1613868474E+02  1.2896157000E+02 0. 9.
      24    2    3    0    0    0 -4.3529258286E+01  9.4161808245E+01  3.2378491651E+02  3.4938101068E+02  8.0431188000E+01 0. 9.
 1000022    1    4    0    0    0 -4.7832271451E+01  2.1383956185E+01  1.6184052579E+02  2.1346812900E+02  1.2896157000E+02 0. 9.
     -24    2    4    0    0    0  3.0104063057E+01 -1.0752217390E+02  8.2450709465E+01  1.6041997378E+02  8.0431188000E+01 0. 9.
      -3    1    6    0    0  102  1.2428068059E+01  3.4723214731E+01  4.1483202812E+01  5.5509140081E+01  5.0000000000E-01 0. 9.
       4    1    6    0  102    0 -5.5957326346E+01  5.9438593514E+01  2.8230171370E+02  2.9387187060E+02  1.5000000000E+00 0. 9.
       1    1    8    0  103    0 -2.7535318612E+01 -3.8079597657E+01  2.2731358010E+01  5.2202232383E+01  3.3000000000E-01 0. 9.
      -2    1    8    0    0  103  5.7639381670E+01 -6.9442576246E+01  5.9719351455E+01  1.0821774140E+02  3.3000000000E-01 0. 9.
</event>
<event>
    12   230  1.000000E+00  2.834729E+02  7.863403E-03  1.081583E-01
      -2   -1    0    0    0  101  0.0000000000E+00  0.0000000000E+00  5.1344575319E+02  5.1344575319E+02  0.0000000000E+00 0. 9.
       1   -1    0    0  101    0  0.0000000000E+00  0.0000000000E+00 -1.6367237410E+02  1.6367237410E+02  0.0000000000E+00 0. 9.
-1000024    2    1    2    0    0 -2.2864967964E+01 -8.6558685227E+01  1.0407921905E+02  3.0203926970E+02  2.6903535800E+02 0. 9.
 1000023    2    1    2    0    0  2.2864967964E+01  8.6558685227E+01  2.4569416004E+02  3.7507885758E+02  2.6889276000E+02 0. 9.
 1000022    1    3    0    0    0 -2.1089188699E+01 -2.2907962150E+00 -1.9567476032E+01  1.3215133099E+02  1.2896157000E+02 0. 9.
     -24    2    3    0    0    0 -1.7757792648E+00 -8.4267889012E+01  1.2364669509E+02  1.6988793871E+02  8.0431188000E+01 0. 9.
 1000022    1    4    0    0    0 -8.7195667461E-01  1.8169117589E+01  7.4835275818E+01  1.5020746382E+02  1.2896157000E+02 0. 9.
      25    2    4    0    0    0  2.3736924638E+01  6.8389567639E+01  1.7085888422E+02  2.2487139377E+02  1.2701893900E+02 0. 9.
      11    1    6    0    0    0 -3.5084664864E+01 -1.9040555985E+01  2.5280148843E+01  4.7249999012E+01  5.1000000000E-04 0. 9.
     -12    1    6    0    0    0  3.3308885599E+01 -6.5227333027E+01  9.8366546244E+01  1.2263793970E+02  0.0000000000E+00 0. 9.
     -15    1    8    0    0    0  4.1328330598E+01  9.8367832577E+01  1.5068302243E+02  1.8464233636E+02  1.7770000000E+00 0. 9.
      15    1    8    0    0    0 -1.7591405960E+01 -2.9978264939E+01  2.0175861784E+01  4.0229057410E+01  1.7770000000E+00 0. 9.
</event>
<event>
    12   273  1.000000E+00  1.301635E+03  8.001472E-03  9.004477E-02
       1   -1    0    0  101    0  0.0000000000E+00  0.0000000000E+00  1.1979801618E+03  1.1979801618E+03  0.0000000000E+00 0. 9.
       2   -1    0    0  102    0  0.0000000000E+00  0.0000000000E+00 -1.5700323648E+03  1.5700323648E+03  0.0000000000E+00 0. 9.
 2000001    2    1    2  102    0 -8.4208582349E+02 -4.3160374059E+01  2.4990841016E+02  1.3254831019E+03  9.9170554500E+02 0. 9.
 1000002    2    1    2  101    0  8.4208582349E+02  4.3160374059E+01 -6.2196061313E+02  1.4425294246E+03  9.9150632100E+02 0. 9.
 1000022    1    3    0    0    0 -2.3200364604E+02  4.4607824642E+02  7.9814607534E+01  5.2517897122E+02  1.2896157000E+02 0. 9.
       1    1    3    0  102    0 -6.1008217745E+02 -4.8923862048E+02  1.7009380262E+02  8.0030413069E+02  3.3000000000E-01 0. 9.
 1000023    2    4    0    0    0 -1.3165845774E+02 -5.8556644206E+01 -5.1409582001E+01  3.0936886006E+02  2.6889276000E+02 0. 9.
       2    1    4    0  101    0  9.7374428123E+02  1.0171701827E+02 -5.7055103113E+02  1.1331605646E+03  3.3000000000E-01 0. 9.
 1000022    1    7    0    0    0 -1.0130098771E+02 -2.9683980740E+01 -5.5216858547E+01  1.7556485077E+02  1.2896157000E+02 0. 9.
      25    2    7    0    0    0 -3.0357470034E+01 -2.8872663467E+01  3.8072765452E+00  1.3380400929E+02  1.2701893900E+02 0. 9.
      21    1   10    0  103  104 -4.6643813210E+01 -6.6897138850E+01  2.7584556765E+01  8.6091696865E+01  0.0000000000E+00 0. 9.
      21    1   10    0  104  103  1.6286343176E+01  3.8024475384E+01 -2.3777280220E+01  4.7712312425E+01  0.0000000000E+00 0. 9.
</event>
<event>
    12   230  1.000000E+00  3.000751E+02  7.868473E-03  1.073520E-01
      -2   -1    0    0    0  101  0.0000000000E+00  0.0000000000E+00  8.3232264915E+01  8.3232264915E+01  0.0000000000E+00 0. 9.
       1   -1    0    0  101    0  0.0000000000E+00  0.0000000000E+00 -1.1289000946E+03  1.1289000946E+03  0.0000000000E+00 0. 9.
-1000024    2    1    2    0    0  1.0545241899E+02  8.1136838920E+01 -3.9921511198E+02  4.9945583267E+02  2.6903535800E+02 0. 9.
 1000023    2    1    2    0    0 -1.0545241899E+02 -8.1136838920E+01 -6.4645271766E+02  7.1267652680E+02  2.6889276000E+02 0. 9.
 1000022    1    3    0    0    0  3.8205189000E+01  1.2757349577E+02 -2.5274526085E+02  3.1344199895E+02  1.2896157000E+02 0. 9.
     -24    2    3    0    0    0  6.7247229994E+01 -4.6436656848E+01 -1.4646985113E+02  1.8601383372E+02  8.0431188000E+01 0. 9.
 1000022    1    4    0    0    0 -6.7468608898E+01 -1.2111190615E+01 -3.8104005577E+02  4.0807022038E+02  1.2896157000E+02 0. 9.
      25    2    4    0    0    0 -3.7983810095E+01 -6.9025648305E+01 -2.6541266189E+02  3.0460630642E+02  1.2701893900E+02 0. 9.
       3    1    6    0  102    0  1.5833730079E+01 -3.7432483329E+01 -1.2971215722E+01  4.2666148803E+01  5.0000000000E-01 0. 9.
      -4    1    6    0    0  102  5.1413499915E+01 -9.0041735191E+00 -1.3349863541E+02  1.4334768492E+02  1.5000000000E+00 0. 9.
       5    1    8    0  103    0 -3.2005526179E+01 -7.4144004596E+01 -2.7770089292E+02  2.8924472865E+02  4.8000000000E+00 0. 9.
      -5    1    8    0    0  103 -5.9782839161E+00  5.1183562902E+00  1.2288231029E+01  1.5361577768E+01  4.8000000000E+00 0. 9.
</event>
<event>
    16   271  1.000000E+00  1.109495E+03  7.986778E-03  9.165312E-02
       2   -1    0    0  101    0  0.0000000000E+00  0.0000000000E+00  2.1376391456E+03  2.1376391456E+03  0.0000000000E+00 0. 9.
       1   -1    0    0  102    0  0.0000000000E+00  0.0000000000E+00 -6.8632451464E+02  6.8632451464E+02  0.0000000000E+00 0. 9.
 1000002    2    1    2  102    0  4.5184463380E+02  2.0232900859E+02  1.2914397795E+03  1.7017644048E+03  9.9150632100E+02 0. 9.
 1000001    2    1    2  101    0 -4.5184463380E+02 -2.0232900859E+02  1.5987485143E+02  1.1221992554E+03  9.9431916400E+02 0. 9.
 1000023    2    3    0    0    0 -8.6097979174E-01  4.9902899561E+02  6.7216143582E+02  8.7928095165E+02  2.6889276000E+02 0. 9.
       2    1    3    0  102    0  4.5270561360E+02 -2.9669998702E+02  6.1927834366E+02  8.2248345315E+02  3.3000000000E-01 0. 9.
-1000024    2    4    0    0    0 -1.4450660743E+02 -5.6049113215E+02  7.5031764943E+01  6.4268363789E+02  2.6903535800E+02 0. 9.
       2    1    4    0  101    0 -3.0733802638E+02  3.5816212356E+02  8.4843086487E+01  4.7951561751E+02  3.3000000000E-01 0. 9.
 1000022    1    5    0    0    0  3.6585319152E+01  2.1386869847E+02  3.0501383985E+02  3.9590760891E+02  1.2896157000E+02 0. 9.
      25    2    5    0    0    0 -3.7446298944E+01  2.8516029714E+02  3.6714759598E+02  4.8337334273E+02  1.2701893900E+02 0. 9.
 1000022    1    7    0    0    0 -2.6451764890E+01 -1.3802413615E+02  1.8093024235E+00  1.9074778672E+02  1.2896157000E+02 0. 9.
     -24    2    7    0    0    0 -1.1805484254E+02 -4.2246699600E+02  7.3222462520E+01  4.5193585117E+02  8.0431188000E+01 0. 9.
       5    1   10    0  103    0 -5.7129680635E+01  4.4680099882E+01  7.5063359565E+01  1.0448760541E+02  4.8000000000E+00 0. 9.
      -5    1   10    0    0  103  1.9683381691E+01  2.4048019725E+02  2.9208423641E+02  3.7888573732E+02  4.8000000000E+00 0. 9.
       1    1   12    0  104    0 -4.1781575219E+01 -1.8284097941E+02  7.0739407682E+01  2.0045123217E+02  3.3000000000E-01 0. 9.
      -2    1   12    0    0  104 -7.6273267319E+01 -2.3962601659E+02  2.4830548380E+00  2.5148461900E+02  3.3000000000E-01 0. 9.
</event>
<event>
    17   258  1.000000E+00  1.031681E+03  7.980106E-03  9.240455E-02
       2   -1    0    0  101    0  0.0000000000E+00  0.0000000000E+00  2.1011432822E+03  2.1011432822E+03  0.0000000000E+00 0. 9.
      21   -1    0    0  102  101  0.0000000000E+00  0.0000000000E+00 -5.7703539707E+02  5.7703539707E+02  0.0000000000E+00 0. 9.
 1000002    2    1    2  103    0 -3.2994159173E+02  2.9969969348E+02  1.2713798246E+03  1.6727739845E+03  9.9150632100E+02 0. 9.
 1000021    2    1    2  102  103  3.2994159173E+02 -2.9969969348E+02  2.5272806053E+02  1.0054046948E+03  8.6503512500E+02 0. 9.
 1000024    2    3    0    0    0 -1.4635036653E+02 -2.6959732751E+02  8.4450961612E+02  9.3791133076E+02  2.6903535800E+02 0. 9.
       1    1    3    0  103    0 -1.8359122519E+02  5.6929702099E+02  4.2687020848E+02  7.3486265374E+02  3.3000000000E-01 0. 9.
-1000024    2    4    0    0    0 -4.0514241895E+01 -2.0612308844E+02  2.1289851548E+02  4.0228588483E+02  2.6903535800E+02 0. 9.
       2    1    4    0  102    0  2.6337560438E+02  1.1864550257E+02 -1.2407099725E+02  3.1438381880E+02  3.3000000000E-01 0. 9.
      -1    1    4    0    0  103  1.0708022924E+02 -2.1222210761E+02  1.6390054230E+02  2.8873499116E+02  3.3000000000E-01 0. 9.
 1000022    1    5    0    0    0 -7.9612578061E+01 -2.5122903105E+02  5.2742516090E+02  6.0354169327E+02  1.2896157000E+02 0. 9.
      24    2    5    0    0    0 -6.6737788474E+01 -1.8368296452E+01  3.1708445522E+02  3.3436963748E+02  8.0431188000E+01 0. 9.
 1000022    1    7    0    0    0  5.7768508450E+01 -1.3640102896E+02  1.2601056039E+02  2.3334992851E+02  1.2896157000E+02 0. 9.
     -24    2    7    0    0    0 -9.8282750345E+01 -6.9722059478E+01  8.6887955083E+01  1.6893595631E+02  8.0431188000E+01 0. 9.
      -1    1   11    0    0  104 -5.3717420607E+01 -3.4949610424E+01  1.1894346542E+02  1.3510993084E+02  3.3000000000E-01 0. 9.
       2    1   11    0  104    0 -1.3020367867E+01  1.6581313971E+01  1.9814098980E+02  1.9925970664E+02  3.3000000000E-01 0. 9.
      15    1   13    0    0    0 -5.3004757638E+01 -3.8703769931E+01 -5.9951631372E-01  6.5658230923E+01  1.7770000000E+00 0. 9.
     -16    1   13    0    0    0 -4.5277992707E+01 -3.1018289547E+01  8.7487471397E+01  1.0327772539E+02  0.0000000000E+00 0. 9.
</event>
<event>
    17   258  1.000000E+00  9.380264E+02  7.971390E-03  9.340683E-02
       2   -1    0    0  101    0  0.0000000000E+00  0.0000000000E+00  2.2100043115E+03  2.2100043115E+03  0.0000000000E+00 0. 9.
      21   -1    0    0  102  101  0.0000000000E+00  0.0000000000E+00 -4.0270111471E+02  4.0270111471E+02  0.0000000000E+00 0. 9.
 1000002    2    1    2  103    0  1.0219617453E+02 -6.1352714354E+01  1.1268033465E+03  1.5056489564E+03  9.9150632100E+02 0. 9.
 1000021    2    1    2  102  103 -1.0219617453E+02  6.1352714354E+01  6.8049985031E+02  1.1070564698E+03  8.6503512500E+02 0. 9.
 1000024    2    3    0    0    0 -3.0704030415E+01  3.6141202417E+02  2.3334436476E+02  5.0832175354E+02  2.6903535800E+02 0. 9.
       1    1    3    0  103    0  1.3290020494E+02 -4.2276473853E+02  8.9345898176E+02  9.9732720288E+02  3.3000000000E-01 0. 9.
 1000024    2    4    0    0    0  5.4274883145E+01 -6.9404679684E+01  7.6510527678E+01  2.9325186649E+02  2.6903535800E+02 0. 9.
      -4    1    4    0    0  103 -2.5061408398E+01 -7.2570135555E+01 -6.6100994799E+01  1.0132171672E+02  1.5000000000E+00 0. 9.
       3    1    4    0  102    0 -1.3140964927E+02  2.0332752959E+02  6.7009031743E+02  7.1248288662E+02  5.0000000000E-01 0. 9.
 1000022    1    5    0    0    0 -4.9736004180E+01  1.1691203503E+02  3.8862510100E+01  1.8515797383E+02  1.2896157000E+02 0. 9.
      24    2    5    0    0    0  1.9031973765E+01  2.4449998915E+02  1.9448185466E+02  3.2316377970E+02  8.0431188000E+01 0. 9.
 1000022    1    7    0    0    0  8.2508007553E+01 -7.6468234780E+01 -1.0223208430E+01  1.7143676026E+02  1.2896157000E+02 0. 9.
      24    2    7    0    0    0 -2.8233124408E+01  7.0635550966E+00  8.6733736109E+01  1.2181510623E+02  8.0431188000E+01 0. 9.
      -1    1   11    0    0  104  2.6055881385E+01  3.7418727811E+01  6.2988979376E+01  7.7761112187E+01  3.3000000000E-01 0. 9.
       2    1   11    0  104    0 -7.0239076195E+00  2.0708126133E+02  1.3149287528E+02  2.4540266752E+02  3.3000000000E-01 0. 9.
      -1    1   13    0    0  105  2.9730609063E+00 -2.4744749992E+01  6.9847870246E+01  7.4161820509E+01  3.3000000000E-01 0. 9.
       2    1   13    0  105    0 -3.1206185315E+01  3.1808305088E+01  1.6885865862E+01  4.7653285725E+01  3.3000000000E-01 0. 9.
</event>
<event>
    28   259  1.000000E+00  1.140153E+03  7.989282E-03  9.137458E-02
      -2   -1    0    0    0  101  0.0000000000E+00  0.0000000000E+00  1.3580060541E+03  1.3580060541E+03  0.0000000000E+00 0. 9.
      21   -1    0    0  101  102  0.0000000000E+00  0.0000000000E+00 -9.5537260609E+02  9.5537260609E+02  0.0000000000E+00 0. 9.
-2000002    2    1    2    0  103 -2.4192981112E+02  6.1313899165E+02  2.2051296311E+02  1.2106896310E+03  9.9129912700E+02 0. 9.
 1000021    2    1    2  103  102  2.4192981112E+02 -6.1313899165E+02  1.8212048493E+02  1.1026890292E+03  8.6503512500E+02 0. 9.
 1000021    2    3    0  104  103 -2.1203783095E+02  6.6741540257E+02  1.6058992541E+02  1.1244902192E+03  8.6503512500E+02 0. 9.
      -2    1    3    0    0  104 -2.9891980173E+01 -5.4276410918E+01  5.9923037702E+01  8.6199411878E+01  3.3000000000E-01 0. 9.
-1000024    2    4    0    0    0  3.8540337097E+02 -1.5548388467E+02  2.0948279286E+01  4.9550968810E+02  2.6903535800E+02 0. 9.
       6    2    4    0  103    0 -6.6637466821E+01 -4.6406898090E+02  1.7327796744E+02  5.2898399316E+02  1.7320000000E+02 0. 9.
      -5    1    4    0    0  102 -7.6836093023E+01  6.4138739209E+00 -1.2105761792E+01  7.8195347933E+01  4.8000000000E+00 0. 9.
 1000024    2    5    0    0    0  1.1589752531E+01  4.6538185090E+02  1.2403693118E+02  5.5179685906E+02  2.6903535800E+02 0. 9.
      -6    2    5    0    0  103  3.2241437368E+01  1.0215535964E+01 -1.2317101175E+02  2.1520503153E+02  1.7320000000E+02 0. 9.
       5    1    5    0  104    0 -2.5586902085E+02  1.9181801570E+02  1.5972400598E+02  3.5748832857E+02  4.8000000000E+00 0. 9.
 1000022    1    7    0    0    0  2.8244927318E+02 -1.8347454641E+02  2.7573529959E+00  3.6066492847E+02  1.2896157000E+02 0. 9.
     -24    2    7    0    0    0  1.0295409779E+02  2.7990661744E+01  1.8190926290E+01  1.3484475963E+02  8.0431188000E+01 0. 9.
      24    2    8    0    0    0 -6.1207714066E+01 -4.6891533803E+02  1.4761998869E+02  5.0188526135E+02  8.0431188000E+01 0. 9.
       5    1    8    0  103    0 -5.4297527546E+00  4.8463571227E+00  2.5657978746E+01  2.7098731809E+01  4.8000000000E+00 0. 9.
 1000022    1   10    0    0    0 -6.1743470406E+01  2.9100763355E+02  1.2141801347E+02  3.4622408850E+02  1.2896157000E+02 0. 9.
      24    2   10    0    0    0  7.3333222937E+01  1.7437421735E+02  2.6189177139E+00  2.0557277056E+02  8.0431188000E+01 0. 9.
     -24    2   11    0    0    0  6.4330738788E+01  5.8131669370E+01 -7.6379046891E+01  1.4078590037E+02  8.0431188000E+01 0. 9.
      -5    1   11    0    0  103 -3.2089301419E+01 -4.7916133406E+01 -4.6791964860E+01  7.4419131154E+01  4.8000000000E+00 0. 9.
      11    1   14    0    0    0  8.8669122268E+01  2.9773078609E+01  4.5469549543E+01  1.0400062206E+02  5.1000000000E-04 0. 9.
     -12    1   14    0    0    0  1.4284975522E+01 -1.7824168647E+00 -2.7278623253E+01  3.0844137564E+01  0.0000000000E+00 0. 9.
     -11    1   15    0    0    0 -3.1423158711E+01 -3.9272764274E+02  1.4569819484E+02  4.2005997221E+02  5.1000000000E-04 0. 9.
      12    1   15    0    0    0 -2.9784555355E+01 -7.6187695288E+01  1.9217938456E+00  8.1825289139E+01  0.0000000000E+00 0. 9.
      -1    1   18    0    0  105  6.3737682367E+01  1.7765085482E+02 -1.0450330133E+01  1.8902813725E+02  3.3000000000E-01 0. 9.
       2    1   18    0  105    0  9.5955405700E+00 -3.2766374749E+00  1.3069247847E+01  1.6544633307E+01  3.3000000000E-01 0. 9.
       3    1   19    0  106    0 -8.7589289926E+00  1.1009400060E+01  1.0721235334E+01  1.7695214434E+01  5.0000000000E-01 0. 9.
      -4    1   19    0    0  106  7.3089667780E+01  4.7122269310E+01 -8.7100282225E+01  1.2309068594E+02  1.5000000000E+00 0. 9.
</event>
<event>
    21   258  1.000000E+00  1.027370E+03  7.979722E-03  9.244820E-02
       2   -1    0    0  101    0  0.0000000000E+00  0.0000000000E+00  2.0389813615E+03  2.0389813615E+03  0.0000000000E+00 0. 9.
      21   -1    0    0  102  101  0.0000000000E+00  0.0000000000E+00 -5.3002529939E+02  5.3002529939E+02  0.0000000000E+00 0. 9.
 1000002    2    1    2  103    0 -4.3373821151E+02  4.0934014980E+01  1.0037241537E+03  1.4766012973E+03  9.9150632100E+02 0. 9.
 1000021    2    1    2  102  103  4.3373821151E+02 -4.0934014980E+01  5.0523190832E+02  1.0924053636E+03  8.6503512500E+02 0. 9.
 1000024    2    3    0    0    0 -6.6385814053E+01  6.9536763750E+01 -1.0798346036E+02  3.0542247688E+02  2.6903535800E+02 0. 9.
       1    1    3    0  103    0 -3.6735239746E+02 -2.8602748770E+01  1.1117076141E+03  1.1711788204E+03  3.3000000000E-01 0. 9.
 1000024    2    4    0    0    0  1.4757803636E+02  1.2295599948E+02  2.3438418079E+02  4.0523255383E+02  2.6903535800E+02 0. 9.
      -6    2    4    0    0  103  5.1021155520E+01 -4.5057215270E+01  3.6307956314E+02  4.0799303931E+02  1.7320000000E+02 0. 9.
       5    1    4    0  102    0  2.3513901963E+02 -1.1883279919E+02 -9.2231835614E+01  2.7917977043E+02  4.8000000000E+00 0. 9.
 1000022    1    5    0    0    0 -3.8157486216E+01  1.1432360740E+02 -1.1200069087E+02  2.0904813382E+02  1.2896157000E+02 0. 9.
      24    2    5    0    0    0 -2.8228327837E+01 -4.4786843647E+01  4.0172305089E+00  9.6374343061E+01  8.0431188000E+01 0. 9.
 1000022    1    7    0    0    0  1.0187241785E+02  1.4185190908E+02  2.2113000382E+02  3.0988629972E+02  1.2896157000E+02 0. 9.
      24    2    7    0    0    0  4.5705618505E+01 -1.8895909599E+01  1.3254176977E+01  9.5346254110E+01  8.0431188000E+01 0. 9.
     -24    2    8    0    0    0  8.3306554812E+01 -4.6124967374E+01  3.5214358310E+02  3.7355290630E+02  8.0431188000E+01 0. 9.
      -5    1    8    0    0  103 -3.2285399293E+01  1.0677521035E+00  1.0935980041E+01  3.4440133006E+01  4.8000000000E+00 0. 9.
      -1    1   11    0    0  104 -8.5116912977E+00 -6.4993713728E+01 -7.3033690241E+00  6.5955134842E+01  3.3000000000E-01 0. 9.
       2    1   11    0  104    0 -1.9716636540E+01  2.0206870081E+01  1.1320599533E+01  3.0419208219E+01  3.3000000000E-01 0. 9.
     -15    1   13    0    0    0 -3.8901300420E+00  1.4624137831E+01 -2.1329998384E+01  2.6213070768E+01  1.7770000000E+00 0. 9.
      16    1   13    0    0    0  4.9595748547E+01 -3.3520047430E+01  3.4584175361E+01  6.9133183342E+01  0.0000000000E+00 0. 9.
       3    1   14    0  105    0  4.8093851361E+01  2.8746545703E+00  6.9680437956E+01  8.4716560431E+01  5.0000000000E-01 0. 9.
      -2    1   14    0    0  105  3.5212703452E+01 -4.8999621944E+01  2.8246314514E+02  2.8883634587E+02  3.3000000000E-01 0. 9.
</event>
<event>
    12   230  1.000000E+00  3.101399E+02  7.871415E-03  1.068901E-01
      -2   -1    0    0    0  101  0.0000000000E+00  0.0000000000E+00  1.1825297653E+03  1.1825297653E+03  0.0000000000E+00 0. 9.
       1   -1    0    0  101    0  0.0000000000E+00  0.0000000000E+00 -8.1389035379E+01  8.1389035379E+01  0.0000000000E+00 0. 9.
-1000024    2    1    2    0    0 -1.4929394745E+00 -1.5441141657E+02  5.6621726688E+02  6.4562150801E+02  2.6903535800E+02 0. 9.
 1000023    2    1    2    0    0  1.4929394745E+00  1.5441141657E+02  5.3492346304E+02  6.1829729267E+02  2.6889276000E+02 0. 9.
 1000022    1    3    0    0    0  3.8315713642E+01 -1.8255458988E+01  1.7286200485E+02  2.1980381014E+02  1.2896157000E+02 0. 9.
     -24    2    3    0    0    0 -3.9808653117E+01 -1.3615595758E+02  3.9335526203E+02  4.2581769786E+02  8.0431188000E+01 0. 9.
 1000022    1    4    0    0    0 -3.6090650662E+00  1.0788796832E+02  3.5793642675E+02  3.9547744713E+02  1.2896157000E+02 0. 9.
      25    2    4    0    0    0  5.1020045407E+00  4.6523448247E+01  1.7698703629E+02  2.2281984554E+02  1.2701893900E+02 0. 9.
       3    1    6    0  102    0 -3.9272419274E+01 -1.4687989468E+02  3.7191190331E+02  4.0178942271E+02  5.0000000000E-01 0. 9.
      -4    1    6    0    0  102 -5.3623384214E-01  1.0723937107E+01  2.1443358722E+01  2.4028275158E+01  1.5000000000E+00 0. 9.
     -15    1    8    0    0    0  1.9521385317E+01  8.8454323704E+01  1.1067729486E+02  1.4303102179E+02  1.7770000000E+00 0. 9.
      15    1    8    0    0    0 -1.4419380777E+01 -4.1930875457E+01  6.6309741428E+01  7.9788823753E+01  1.7770000000E+00 0. 9.
</event>
<event>
    12   273  1.000000E+00  1.167687E+03  7.991475E-03  9.113213E-02
       2   -1    0    0  101    0  0.0000000000E+00  0.0000000000E+00  1.0354633006E+03  1.0354633006E+03  0.0000000000E+00 0. 9.
       2   -1    0    0  102    0  0.0000000000E+00  0.0000000000E+00 -1.3205791790E+03  1.3205791790E+03  0.0000000000E+00 0. 9.
 1000002    2    1    2  101    0 -5.3692891332E+02  3.0384176271E+02 -2.0563756132E+02  1.1857419896E+03  9.9150632100E+02 0. 9.
 2000002    2    1    2  102    0  5.3692891332E+02 -3.0384176271E+02 -7.9478317133E+01  1.1703004900E+03  9.9129912700E+02 0. 9.
 1000024    2    3    0    0    0  3.9888376706E+00 -2.0324208165E+02 -2.8308466225E+02  4.4027287497E+02  2.6903535800E+02 0. 9.
       1    1    3    0  101    0 -5.4091775099E+02  5.0708384436E+02  7.7447100927E+01  7.4546911464E+02  3.3000000000E-01 0. 9.
 1000022    1    4    0    0    0  5.5297783184E+02  1.9373866934E+02 -2.4152895898E+02  6.4675070860E+02  1.2896157000E+02 0. 9.
       2    1    4    0  102    0 -1.6048918528E+01 -4.9758043205E+02  1.6205064185E+02  5.2354978137E+02  3.3000000000E-01 0. 9.
 1000022    1    5    0    0    0  1.7282368606E+01 -2.1680457693E+02 -2.3171174240E+02  3.4296402573E+02  1.2896157000E+02 0. 9.
      24    2    5    0    0    0 -1.3293530935E+01  1.3562495282E+01 -5.1372919846E+01  9.7308849236E+01  8.0431188000E+01 0. 9.
      -1    1   10    0    0  103  1.5702400386E+01 -2.7912270516E+01 -1.9229532009E+01  3.7356980934E+01  3.3000000000E-01 0. 9.
       2    1   10    0  103    0 -2.8995931321E+01  4.1474765798E+01 -3.2143387837E+01  5.9951868301E+01  3.3000000000E-01 0. 9.
</event>
<event>
    18   244  1.000000E+00  9.244084E+02  7.970053E-03  9.356277E-02
      21   -1    0    0  101  102  0.0000000000E+00  0.0000000000E+00  1.5121768869E+03  1.5121768869E+03  0.0000000000E+00 0. 9.
      21   -1    0    0  103  101  0.0000000000E+00  0.0000000000E+00 -7.5272226438E+02  7.5272226438E+02  0.0000000000E+00 0. 9.
 1000021    2    1    2  104  102 -1.5919365313E+02 -2.8443379650E+02  9.4511171264E+02  1.3220314371E+03  8.6503512500E+02 0. 9.
 1000021    2    1    2  103  104  1.5919365313E+02  2.8443379650E+02 -1.8565709016E+02  9.4286771416E+02  8.6503512500E+02 0. 9.
-1000024    2    3    0    0    0 -1.7142540445E+02  6.4639612024E+01  1.9786316788E+02  3.8091312106E+02  2.6903535800E+02 0. 9.
       6    2    3    0  104    0  1.0568912217E+02 -3.5307657792E+02  3.6270442160E+02  5.4533109014E+02  1.7320000000E+02 0. 9.
      -5    1    3    0    0  102 -9.3457370848E+01  4.0031693898E+00  3.8454412315E+02  3.9578722589E+02  4.8000000000E+00 0. 9.
 1000022    1    4    0    0    0  4.1523779118E+02  4.0620225193E+02 -2.2525876743E+02  6.3623524858E+02  1.2896157000E+02 0. 9.
       3    1    4    0  103    0 -4.6781201018E+01 -7.5010868235E+01 -9.4144538546E-01  8.8409543837E+01  5.0000000000E-01 0. 9.
      -3    1    4    0    0  104 -2.0926293704E+02 -4.6757587188E+01  4.0543122659E+01  2.1822292174E+02  5.0000000000E-01 0. 9.
 1000022    1    5    0    0    0 -1.2707340173E+02 -3.8695696222E+01  9.1721135631E+01  2.0661282533E+02  1.2896157000E+02 0. 9.
     -24    2    5    0    0    0 -4.4352002719E+01  1.0333530825E+02  1.0614203225E+02  1.7430029572E+02  8.0431188000E+01 0. 9.
      24    2    6    0    0    0  1.1819282415E+02 -2.6877089427E+02  3.4126614647E+02  4.5731728156E+02  8.0431188000E+01 0. 9.
       5    1    6    0  104    0 -1.2503701977E+01 -8.4305683650E+01  2.1438275130E+01  8.8013808573E+01  4.8000000000E+00 0. 9.
       1    1   12    0  105    0 -1.7845023397E+01  9.2966730717E-01  5.2976883180E+01  5.5910358546E+01  3.3000000000E-01 0. 9.
      -2    1   12    0    0  105 -2.6506979322E+01  1.0240564094E+02  5.3165149074E+01  1.1838993718E+02  3.3000000000E-01 0. 9.
     -13    1   13    0    0    0  4.4828741751E+01 -1.0749972974E+02  7.8711037606E+01  1.4057470109E+02  1.0566000000E-01 0. 9.
      14    1   13    0    0    0  7.3364082396E+01 -1.6127116453E+02  2.6255510887E+02  3.1674258048E+02  0.0000000000E+00 0. 9.
</event>
<event>
    12   226  1.000000E+00  2.786056E+02  7.861862E-03  1.084061E-01
      -2   -1    0    0    0  101  0.0000000000E+00  0.0000000000E+00  1.2038312621E+02  1.2038312621E+02  0.0000000000E+00 0. 9.
       2   -1    0    0  101    0  0.0000000000E+00  0.0000000000E+00 -6.5226609936E+02  6.5226609936E+02  0.0000000000E+00 0. 9.
-1000024    2    1    2    0    0  6.5529260489E+01 -3.0772553054E+01 -2.2456389956E+02  3.5784075067E+02  2.6903535800E+02 0. 9.
 1000024    2    1    2    0    0 -6.5529260489E+01  3.0772553054E+01 -3.0731907359E+02  4.1480847490E+02  2.6903535800E+02 0. 9.
 1000022    1    3    0    0    0  2.3272046392E+01 -9.6612696142E+01 -1.0424905706E+02  1.9332499485E+02  1.2896157000E+02 0. 9.
     -24    2    3    0    0    0  4.2257214097E+01  6.5840143088E+01 -1.2031484249E+02  1.6451575582E+02  8.0431188000E+01 0. 9.
 1000022    1    4    0    0    0  1.9737899028E+01 -4.5538076475E+01 -1.3964255973E+02  1.9645465658E+02  1.2896157000E+02 0. 9.
      24    2    4    0    0    0 -8.5267159517E+01  7.6310629529E+01 -1.6767651386E+02  2.1835381832E+02  8.0431188000E+01 0. 9.
       1    1    6    0  102    0  6.2213078761E+01  2.8853050776E+01 -6.0754561190E+01  9.1619819435E+01  3.3000000000E-01 0. 9.
      -2    1    6    0    0  102 -1.9955864664E+01  3.6987092312E+01 -5.9560281304E+01  7.2895936383E+01  3.3000000000E-01 0. 9.
     -11    1    8    0    0    0 -4.8176755242E+01  6.0575801018E+01 -1.5943647938E+02  1.7722984616E+02  5.1000000000E-04 0. 9.
      12    1    8    0    0    0 -3.7090404275E+01  1.5734828511E+01 -8.2400344825E+00  4.1123972156E+01  0.0000000000E+00 0. 9.
</event>
<event>
    12   226  1.000000E+00  3.670511E+02  7.886472E-03  1.045918E-01
      -1   -1    0    0    0  101  0.0000000000E+00  0.0000000000E+00  4.6146593961E+02  4.6146593961E+02  0.0000000000E+00 0. 9.
       1   -1    0    0  101    0  0.0000000000E+00  0.0000000000E+00 -4.3313848374E+02  4.3313848374E+02  0.0000000000E+00 0. 9.
 1000024    2    1    2    0    0  2.4184746762E+02  6.2098859524E+01  2.6954101455E+02  4.5538867830E+02  2.6903535800E+02 0. 9.
-1000024    2    1    2    0    0 -2.4184746762E+02 -6.2098859524E+01 -2.4121355867E+02  4.3921574504E+02  2.6903535800E+02 0. 9.
 1000022    1    3    0    0    0  2.2358118819E+02  9.7628489175E+01  1.8643997566E+02  3.3303276216E+02  1.2896157000E+02 0. 9.
      24    2    3    0    0    0  1.8266279428E+01 -3.5529629651E+01  8.3101038886E+01  1.2235591614E+02  8.0431188000E+01 0. 9.
 1000022    1    4    0    0    0 -1.1799231022E+02  2.6700419551E+01 -5.4261852002E+01  1.8496089531E+02  1.2896157000E+02 0. 9.
     -24    2    4    0    0    0 -1.2385515740E+02 -8.8799279075E+01 -1.8695170667E+02  2.5425484973E+02  8.0431188000E+01 0. 9.
      -3    1    6    0    0  102 -1.8282277697E+01  9.8551674307E+00 -1.0274697609E-01  2.0775624174E+01  5.0000000000E-01 0. 9.
       2    1    6    0  102    0  3.6548557124E+01 -4.5384797082E+01  8.3203785862E+01  1.0158029197E+02  3.3000000000E-01 0. 9.
      11    1    8    0    0    0 -1.2877967191E+01 -5.2701556580E+01 -7.4773364687E+01  9.2381557531E+01  5.1000000000E-04 0. 9.
     -12    1    8    0    0    0 -1.1097719021E+02 -3.6097722496E+01 -1.1217834199E+02  1.6187329220E+02  0.0000000000E+00 0. 9.
</event>
<event>
    12   230  1.000000E+00  2.935361E+02  7.866510E-03  1.076627E-01
      -1   -1    0    0    0  101  0.0000000000E+00  0.0000000000E+00  1.1007463257E+02  1.1007463257E+02  0.0000000000E+00 0. 9.
       2   -1    0    0  101    0  0.0000000000E+00  0.0000000000E+00 -8.2179074182E+02  8.2179074182E+02  0.0000000000E+00 0. 9.
 1000023    2    1    2    0    0  6.5761723124E+01 -9.7453291131E+01 -4.5730818677E+02  5.4337449539E+02  2.6889276000E+02 0. 9.
 1000024    2    1    2    0    0 -6.5761723124E+01  9.7453291131E+01 -2.5440792249E+02  3.8849087899E+02  2.6903535800E+02 0. 9.
 1000022    1    3    0    0    0  5.8567748676E+01 -6.9237867961E+01 -1.9742399937E+02  2.5264873957E+02  1.2896157000E+02 0. 9.
      25    2    3    0    0    0  7.1939744478E+00 -2.8215423170E+01 -2.5988418740E+02  2.9072575582E+02  1.2701893900E+02 0. 9.
 1000022    1    4    0    0    0 -1.8514734635E+01 -3.0284063465E+01 -9.6054948142E+01  1.6467410087E+02  1.2896157000E+02 0. 9.
      24    2    4    0    0    0 -4.7246988489E+01  1.2773735460E+02 -1.5835297435E+02  2.2381677812E+02  8.0431188000E+01 0. 9.
       5    1    6    0  102    0 -3.5817256005E+01 -6.0687375230E+01 -1.0398884164E+02  1.2570820390E+02  4.8000000000E+00 0. 9.
      -5    1    6    0    0  102  4.3011230453E+01  3.2471952060E+01 -1.5589534575E+02  1.6501755192E+02  4.8000000000E+00 0. 9.
      -3    1    8    0    0  103 -9.1306394054E+00  1.1599192260E+02 -1.3214490414E+02  1.7606822647E+02  5.0000000000E-01 0. 9.
       4    1    8    0  103    0 -3.8116349084E+01  1.1745431998E+01 -2.6208070209E+01  4.7748551647E+01  1.5000000000E+00 0. 9.
</event>
<event>
    12   273  1.000000E+00  1.114113E+03  7.987159E-03  9.161057E-02
       2   -1    0    0  101    0  0.0000000000E+00  0.0000000000E+00  1.1745355428E+03  1.1745355428E+03  0.0000000000E+00 0. 9.
       2   -1    0    0  102    0  0.0000000000E+00  0.0000000000E+00 -1.0806293248E+03  1.0806293248E+03  0.0000000000E+00 0. 9.
 2000002    2    1    2  102    0  2.8165255088E+02  4.2313029085E+02  2.1439901244E+02  1.1344638814E+03  9.9129912700E+02 0. 9.
 1000002    2    1    2  101    0 -2.8165255088E+02 -4.2313029085E+02 -1.2049279440E+02  1.1207009862E+03  9.9150632100E+02 0. 9.
 1000022    1    3    0    0    0 -1.9035595385E+02 -2.1799316162E+02  3.8945597891E+01  3.1922445679E+02  1.2896157000E+02 0. 9.
       2    1    3    0  102    0  4.7200850473E+02  6.4112345247E+02  1.7545341455E+02  8.1523942460E+02  3.3000000000E-01 0. 9.
 1000023    2    4    0    0    0 -4.2924021030E+02  1.2122757144E+02  6.9764659913E+01  5.2546522850E+02  2.6889276000E+02 0. 9.
       2    1    4    0  101    0  1.4758765942E+02 -5.4435786229E+02 -1.9025745432E+02  5.9523575773E+02  3.3000000000E-01 0. 9.
 1000022    1    7    0    0    0 -1.7774353289E+02  1.9058924690E+01  1.6274992309E+01  2.2102481310E+02  1.2896157000E+02 0. 9.
      25    2    7    0    0    0 -2.5149667740E+02  1.0216864675E+02  5.3489667604E+01  3.0444041540E+02  1.2701893900E+02 0. 9.
       5    1   10    0  103    0 -1.3165807916E+02  9.8165016907E+01  7.8142611714E+01  1.8193275713E+02  4.8000000000E+00 0. 9.
      -5    1   10    0    0  103 -1.1983859825E+02  4.0036298476E+00 -2.4652944111E+01  1.2250765827E+02  4.8000000000E+00 0. 9.
</event>
<event>
    12   230  1.000000E+00  2.883091E+02  7.864910E-03  1.079174E-01
       1   -1    0    0  101    0  0.0000000000E+00  0.0000000000E+00  1.1303082723E+03  1.1303082723E+03  0.0000000000E+00 0. 9.
      -2   -1    0    0    0  101  0.0000000000E+00  0.0000000000E+00 -1.8461184707E+02  1.8461184707E+02  0.0000000000E+00 0. 9.
 1000023    2    1    2    0    0  6.9356391429E+01  7.7266896554E+01  9.8277264862E+02  1.0241708244E+03  2.6889276000E+02 0. 9.
-1000024    2    1    2    0    0 -6.9356391429E+01 -7.7266896554E+01 -3.7076223374E+01  2.9074929498E+02  2.6903535800E+02 0. 9.
 1000022    1    3    0    0    0  3.8318973834E+01  1.7503672798E+01  6.0357848464E+02  6.1863785527E+02  1.2896157000E+02 0. 9.
      25    2    3    0    0    0  3.1037417595E+01  5.9763223756E+01  3.7919416397E+02  4.0553296914E+02  1.2701893900E+02 0. 9.
 1000022    1    4    0    0    0  4.8651795093E+00 -1.0980329322E+02  3.7651149582E+00  1.6948656525E+02  1.2896157000E+02 0. 9.
     -24    2    4    0    0    0 -7.4221570938E+01  3.2536396664E+01 -4.0841338332E+01  1.2126272972E+02  8.0431188000E+01 0. 9.
       5    1    6    0  102    0 -3.9945487064E+01  5.8352052197E+01  2.2058927416E+02  2.3169650797E+02  4.8000000000E+00 0. 9.
      -5    1    6    0    0  102  7.0982904659E+01  1.4111715593E+00  1.5860488982E+02  1.7383646117E+02  4.8000000000E+00 0. 9.
       1    1    8    0  103    0 -8.9646979931E+01  3.2664498357E+01 -2.3925714708E+01  9.8367165193E+01  3.3000000000E-01 0. 9.
      -2    1    8    0    0  103  1.5425408993E+01 -1.2810169347E-01 -1.6915623624E+01  2.2895564532E+01  3.3000000000E-01 0. 9.
</event>
<event>
    12   226  1.000000E+00  2.940316E+02  7.866660E-03  1.076388E-01
      -1   -1    0    0    0  101  0.0000000000E+00  0.0000000000E+00  6.1574376887E+01  6.1574376887E+01  0.0000000000E+00 0. 9.
       1   -1    0    0  101    0  0.0000000000E+00  0.0000000000E+00 -1.4040678023E+03  1.4040678023E+03  0.0000000000E+00 0. 9.
 1000024    2    1    2    0    0 -1.1218323672E+02  3.8593704653E+01 -6.7162909029E+02  7.3317133838E+02  2.6903535800E+02 0. 9.
-1000024    2    1    2    0    0  1.1218323672E+02 -3.8593704653E+01 -6.7086433509E+02  7.3247084078E+02  2.6903535800E+02 0. 9.
 1000022    1    3    0    0    0  2.0952866073E+01  6.7473070546E+00 -2.4125217286E+02  2.7444169908E+02  1.2896157000E+02 0. 9.
      24    2    3    0    0    0 -1.3313610279E+02  3.1846397599E+01 -4.3037691744E+02  4.5872963930E+02  8.0431188000E+01 0. 9.
 1000022    1    4    0    0    0  4.1408347252E+01  6.0531930156E+00 -5.4348944867E+02  5.6014565938E+02  1.2896157000E+02 0. 9.
     -24    2    4    0    0    0  7.0774889467E+01 -4.4646897669E+01 -1.2737488642E+02  1.7232518140E+02  8.0431188000E+01 0. 9.
      -3    1    6    0    0  102 -5.4889624332E+01  5.2199587874E+01 -1.7067392841E+02  1.8672843296E+02  5.0000000000E-01 0. 9.
       4    1    6    0  102    0 -7.8246478460E+01 -2.0353190275E+01 -2.5970298902E+02  2.7200120634E+02  1.5000000000E+00 0. 9.
      11    1    8    0    0    0  7.3002770879E+01 -5.5823148756E+01 -7.4695972521E+01  1.1842768597E+02  5.1000000000E-04 0. 9.
     -12    1    8    0    0    0 -2.2278814128E+00  1.1176251087E+01 -5.2678913897E+01  5.3897495427E+01  0.0000000000E+00 0. 9.
</event>
<event>
    12   226  1.000000E+00  3.169356E+02  7.873349E-03  1.065887E-01
      -2   -1    0    0    0  101  0.0000000000E+00  0.0000000000E+00  7.6971349469E+01  7.6971349469E+01  0.0000000000E+00 0. 9.
       2   -1    0    0  101    0  0.0000000000E+00  0.0000000000E+00 -1.3762107887E+03  1.3762107887E+03  0.0000000000E+00 0. 9.
-1000024    2    1    2    0    0  1.3681460313E+02  9.6695066379E+01 -4.8434846444E+02  5.7882780717E+02  2.6903535800E+02 0. 9.
 1000024    2    1    2    0    0 -1.3681460313E+02 -9.6695066379E+01 -8.1489097480E+02  8.7435433101E+02  2.6903535800E+02 0. 9.
 1000022    1    3    0    0    0  3.7383987147E+00  9.1069779463E+00 -2.7385832656E+02  3.0286363637E+02  1.2896157000E+02 0. 9.
     -24    2    3    0    0    0  1.3307620441E+02  8.7588088432E+01 -2.1049013788E+02  2.7596417080E+02  8.0431188000E+01 0. 9.
 1000022    1    4    0    0    0 -7.8267244615E+01 -1.3898477288E+02 -4.6714537873E+02  5.1019449241E+02  1.2896157000E+02 0. 9.
      24    2    4    0    0    0 -5.8547358512E+01  4.2289706504E+01 -3.4774559607E+02  3.6415983860E+02  8.0431188000E+01 0. 9.
      15    1    6    0    0    0  5.6291773332E+01  2.1699084578E+01 -2.6348084852E+01  6.5855852594E+01  1.7770000000E+00 0. 9.
     -16    1    6    0    0    0  7.6784431080E+01  6.5889003854E+01 -1.8414205303E+02  2.1010831820E+02  0.0000000000E+00 0. 9.
     -15    1    8    0    0    0 -5.9715118984E+01  2.8809663778E+01 -3.4369480502E+02  3.5003595371E+02  1.7770000000E+00 0. 9.
      16    1    8    0    0    0  1.1677604724E+00  1.3480042726E+01 -4.0507910464E+00  1.4123884894E+01  0.0000000000E+00 0. 9.
</event>
<event>
    12   226  1.000000E+00  4.734555E+02  7.909331E-03  1.013008E-01
       1   -1    0    0  101    0  0.0000000000E+00  0.0000000000E+00  1.2987863270E+03  1.2987863270E+03  0.0000000000E+00 0. 9.
      -1   -1    0    0    0  101  0.0000000000E+00  0.0000000000E+00 -1.9371244187E+02  1.9371244187E+02  0.0000000000E+00 0. 9.
-1000024    2    1    2    0    0 -1.7129511123E+02  3.4991151941E+02  7.9894612129E+02  9.2869532955E+02  2.6903535800E+02 0. 9.
 1000024    2    1    2    0    0  1.7129511123E+02 -3.4991151941E+02  3.0612776382E+02  5.6380343931E+02  2.6903535800E+02 0. 9.
 1000022    1    3    0    0    0 -6.8094549179E+01  1.1580729403E+02  2.0469291352E+02  2.7672815607E+02  1.2896157000E+02 0. 9.
     -24    2    3    0    0    0 -1.0320056205E+02  2.3410422537E+02  5.9425320777E+02  6.5196717348E+02  8.0431188000E+01 0. 9.
 1000022    1    4    0    0    0  7.7537413073E+01 -2.9699335908E+02  2.5746807949E+02  4.2087765949E+02  1.2896157000E+02 0. 9.
      24    2    4    0    0    0  9.3757698159E+01 -5.2918160329E+01  4.8659684332E+01  1.4292577983E+02  8.0431188000E+01 0. 9.
       1    1    6    0  102    0 -4.8697692083E+00 -2.0453693115E+00  5.3487489871E+01  5.3748661942E+01  3.3000000000E-01 0. 9.
      -4    1    6    0    0  102 -9.8330792845E+01  2.3614959468E+02  5.4076571790E+02  5.9821851154E+02  1.5000000000E+00 0. 9.
      -1    1    8    0    0  103  4.5839541930E+01  1.6089589571E+01  2.9218487807E+01  5.6691863848E+01  3.3000000000E-01 0. 9.
       2    1    8    0  103    0  4.7918156230E+01 -6.9007749900E+01  1.9441196525E+01  8.6233915979E+01  3.3000000000E-01 0. 9.
</event>
<event>
    13   258  1.000000E+00  9.889317E+02  7.976228E-03  9.284759E-02
      21   -1    0    0  101  102  0.0000000000E+00  0.0000000000E+00  1.4890011715E+03  1.4890011715E+03  0.0000000000E+00 0. 9.
       2   -1    0    0  102    0  0.0000000000E+00  0.0000000000E+00 -7.1571923423E+02  7.1571923423E+02  0.0000000000E+00 0. 9.
 1000021    2    1    2  101  103 -2.8421201898E+02 -1.7755028591E+02  6.8738907181E+02  1.1545952015E+03  8.6503512500E+02 0. 9.
 1000002    2    1    2  103    0  2.8421201898E+02  1.7755028591E+02  8.5892865499E+01  1.0501252043E+03  9.9150632100E+02 0. 9.
 1000022    1    3    0    0    0 -3.2376819704E+01 -2.4926710594E+02  2.2875185517E+02  3.6351182421E+02  1.2896157000E+02 0. 9.
       1    1    3    0  101    0 -1.5749743948E+02 -7.3710111870E+01 -1.0381500590E+02  2.0252478462E+02  3.3000000000E-01 0. 9.
      -1    1    3    0    0  103 -9.4337759791E+01  1.4542693190E+02  5.6245222254E+02  5.8855859265E+02  3.3000000000E-01 0. 9.
 1000023    2    4    0    0    0  5.7929075908E+02  1.9795187007E+02 -1.3353844259E+02  6.8183470024E+02  2.6889276000E+02 0. 9.
       2    1    4    0  103    0 -2.9507874011E+02 -2.0401584163E+01  2.1943130809E+02  3.6829050405E+02  3.3000000000E-01 0. 9.
 1000022    1    8    0    0    0  2.6111360165E+02  9.0900290844E+01 -1.0130431421E+02  3.2146045862E+02  1.2896157000E+02 0. 9.
      25    2    8    0    0    0  3.1817715744E+02  1.0705157923E+02 -3.2234128386E+01  3.6037424162E+02  1.2701893900E+02 0. 9.
       5    1   11    0  104    0  2.7166707631E+02  4.7921554395E+01 -5.5607033438E+01  2.8145098666E+02  4.8000000000E+00 0. 9.
      -5    1   11    0    0  104  4.6510081125E+01  5.9130024832E+01  2.3372905052E+01  7.8923254959E+01  4.8000000000E+00 0. 9.
</event>
<event>
    18   244  1.000000E+00  9.618436E+02  7.973685E-03  9.314065E-02
      21   -1    0    0  101  102  0.0000000000E+00  0.0000000000E+00  4.0852003245E+02  4.0852003245E+02  0.0000000000E+00 0. 9.
      21   -1    0    0  103  101  0.0000000000E+00  0.0000000000E+00 -2.2864745045E+03  2.2864745045E+03  0.0000000000E+00 0. 9.
 1000021    2    1    2  104  102 -3.2377653742E+02  2.6837674405E+02 -8.0724133718E+02  1.2556996722E+03  8.6503512500E+02 0. 9.
 1000021    2    1    2  103  104  3.2377653742E+02 -2.6837674405E+02 -1.0707131349E+03  1.4392948647E+03  8.6503512500E+02 0. 9.
-1000024    2    3    0    0    0  6.7363514059E+00 -1.3363143717E+02 -3.2734536378E+02  4.4433967915E+02  2.6903535800E+02 0. 9.
       4    1    3    0  104    0 -3.0326880480E+02  3.4282995004E+02 -1.5997040267E+02  4.8486814944E+02  1.5000000000E+00 0. 9.
      -3    1    3    0    0  102 -2.7244084025E+01  5.9178231173E+01 -3.1992557073E+02  3.2649184365E+02  5.0000000000E-01 0. 9.
 1000024    2    4    0    0    0 -8.1843405004E+01  1.8868917685E+02 -3.3399254713E+02  4.7563956290E+02  2.6903535800E+02 0. 9.
      -2    1    4    0    0  104  2.6082797381E+02 -3.5156540829E+02 -5.7200007888E+02  7.2028721172E+02  3.3000000000E-01 0. 9.
       1    1    4    0  103    0  1.4479196862E+02 -1.0550051261E+02 -1.6472050887E+02  2.4336809010E+02  3.3000000000E-01 0. 9.
 1000022    1    5    0    0    0 -4.4793940788E+01 -9.7917916226E+01 -2.9111404691E+02  3.3611440061E+02  1.2896157000E+02 0. 9.
     -24    2    5    0    0    0  5.1530292194E+01 -3.5713520941E+01 -3.6231316866E+01  1.0822527855E+02  8.0431188000E+01 0. 9.
 1000022    1    8    0    0    0 -3.9340177736E+00  1.2284863592E+01 -1.3345455554E+02  1.8603117830E+02  1.2896157000E+02 0. 9.
      24    2    8    0    0    0 -7.7909387231E+01  1.7640431326E+02 -2.0053799159E+02  2.8960838460E+02  8.0431188000E+01 0. 9.
       3    1   12    0  105    0 -1.8253438755E+01 -2.5354821120E+01 -1.4026387549E+01  3.4249737635E+01  5.0000000000E-01 0. 9.
      -4    1   12    0    0  105  6.9783730949E+01 -1.0358699821E+01 -2.2204929318E+01  7.3975540912E+01  1.5000000000E+00 0. 9.
      -3    1   14    0    0  106 -4.5937269700E+01  2.1420354645E+01 -4.9017980365E+01  7.0512954411E+01  5.0000000000E-01 0. 9.
       4    1   14    0  106    0 -3.1972117530E+01  1.5498395862E+02 -1.5152001123E+02  2.1909543019E+02  1.5000000000E+00 0. 9.
</event>
<event>
    12   230  1.000000E+00  2.715740E+02  7.859588E-03  1.087739E-01
      -1   -1    0    0    0  101  0.0000000000E+00  0.0000000000E+00  9.2253066289E+01  9.2253066289E+01  0.0000000000E+00 0. 9.
       2   -1    0    0  101    0  0.0000000000E+00  0.0000000000E+00 -1.1381981637E+03  1.1381981637E+03  0.0000000000E+00 0. 9.
 1000023    2    1    2    0    0 -2.2560636092E+01  3.0030074756E+01 -1.8724856268E+02  3.2981226220E+02  2.6889276000E+02 0. 9.
 1000024    2    1    2    0    0  2.2560636092E+01 -3.0030074756E+01 -8.5869653478E+02  9.0063896784E+02  2.6903535800E+02 0. 9.
 1000022    1    3    0    0    0  2.2616748858E+01 -7.1990706681E+00 -8.0462982672E+01  1.5384642363E+02  1.2896157000E+02 0. 9.
      25    2    3    0    0    0 -4.5177384950E+01  3.7229145424E+01 -1.0678558000E+02  1.7596583856E+02  1.2701893900E+02 0. 9.
 1000022    1    4    0    0    0  9.2607960087E+01 -5.2176427108E+00 -4.3774053872E+02  4.6567297951E+02  1.2896157000E+02 0. 9.
      24    2    4    0    0    0 -7.0047323995E+01 -2.4812432045E+01 -4.2095599606E+02  4.3496598833E+02  8.0431188000E+01 0. 9.
       5    1    6    0  102    0 -5.4563214596E+01 -2.3263025104E+01 -9.6982003199E+01  1.1378427690E+02  4.8000000000E+00 0. 9.
      -5    1    6    0    0  102  9.3858296464E+00  6.0492170528E+01 -9.8035768054E+00  6.2181561669E+01  4.8000000000E+00 0. 9.
      -3    1    8    0    0  103 -3.2784571413E+01 -4.8535023480E+01 -3.1084815606E+02  3.1631835665E+02  5.0000000000E-01 0. 9.
       4    1    8    0  103    0 -3.7262752583E+01  2.3722591435E+01 -1.1010784000E+02  1.1864763168E+02  1.5000000000E+00 0. 9.
</event>
<event>
    17   258  1.000000E+00  1.292631E+03  8.000832E-03  9.011349E-02
       2   -1    0    0  101    0  0.0000000000E+00  0.0000000000E+00  1.4828780915E+03  1.4828780915E+03  0.0000000000E+00 0. 9.
      21   -1    0    0  102  101  0.0000000000E+00  0.0000000000E+00 -1.2316542727E+03  1.2316542727E+03  0.0000000000E+00 0. 9.
 1000002    2    1    2  103    0  2.8602523344E+00 -8.9733043250E+02  5.2807597749E+02  1.4377618401E+03  9.9150632100E+02 0. 9.
 1000021    2    1    2  102  103 -2.8602523344E+00  8.9733043250E+02 -2.7685215860E+02  1.2767705241E+03  8.6503512500E+02 0. 9.
 1000024    2    3    0    0    0 -1.9518694879E+02 -8.4084660550E+02  7.2033690507E+02  1.1560217297E+03  2.6903535800E+02 0. 9.
       1    1    3    0  103    0  1.9804720113E+02 -5.6483826998E+01 -1.9226092758E+02  2.8174011032E+02  3.3000000000E-01 0. 9.
 1000024    2    4    0    0    0  2.7372812391E+01  7.0184584232E+01  4.8819951701E+01  2.8361692167E+02  2.6903535800E+02 0. 9.
      -2    1    4    0    0  103  1.7263147501E+02  5.0389338716E+02 -2.9842201660E+02  6.1054564177E+02  3.3000000000E-01 0. 9.
       1    1    4    0  102    0 -2.0286453973E+02  3.2325246110E+02 -2.7250093702E+01  3.8260796070E+02  3.3000000000E-01 0. 9.
 1000022    1    5    0    0    0 -7.5775060228E+01 -2.4776202982E+02  1.7949945675E+02  3.4055693310E+02  1.2896157000E+02 0. 9.
      24    2    5    0    0    0 -1.1941188857E+02 -5.9308457568E+02  5.4083744832E+02  8.1546479664E+02  8.0431188000E+01 0. 9.
 1000022    1    7    0    0    0 -4.7988398107E+01  7.2448618653E+01  7.1349287012E+01  1.7109499114E+02  1.2896157000E+02 0. 9.
      24    2    7    0    0    0  7.5361210498E+01 -2.2640344217E+00 -2.2529335312E+01  1.1252193054E+02  8.0431188000E+01 0. 9.
      -3    1   11    0    0  104 -3.1629814906E+01 -3.5365308873E+02  3.2562919536E+02  4.8177336500E+02  5.0000000000E-01 0. 9.
       4    1   11    0  104    0 -8.7782073661E+01 -2.3943148695E+02  2.1520825297E+02  3.3369143163E+02  1.5000000000E+00 0. 9.
      -3    1   13    0    0  105  5.1462510434E+00 -1.6163373942E+01 -3.5883441135E+01  3.9693952999E+01  5.0000000000E-01 0. 9.
       4    1   13    0  105    0  7.0214959455E+01  1.3899339520E+01  1.3354105823E+01  7.2827977540E+01  1.5000000000E+00 0. 9.
</event>
<event>
    12   226  1.000000E+00  2.816206E+02  7.862820E-03  1.082520E-01
       1   -1    0    0  101    0  0.0000000000E+00  0.0000000000E+00  1.6118022324E+02  1.6118022324E+02  0.0000000000E+00 0. 9.
      -1   -1    0    0    0  101  0.0000000000E+00  0.0000000000E+00 -4.9213460139E+02  4.9213460139E+02  0.0000000000E+00 0. 9.
-1000024    2    1    2    0    0 -1.7309423189E+01 -8.1427928339E+01 -1.6953119498E+02  3.2871107917E+02  2.6903535800E+02 0. 9.
 1000024    2    1    2    0    0  1.7309423189E+01  8.1427928339E+01 -1.6142318318E+02  3.2460374546E+02  2.6903535800E+02 0. 9.
 1000022    1    3    0    0    0  1.8608067657E+01  1.6294805110E+01 -2.5734766182E+01  1.3381011017E+02  1.2896157000E+02 0. 9.
     -24    2    3    0    0    0 -3.5917490846E+01 -9.7722733449E+01 -1.4379642879E+02  1.9490096900E+02  8.0431188000E+01 0. 9.
 1000022    1    4    0    0    0 -9.5793909972E+00 -3.5833132894E+01 -1.0019595357E+02  1.6746968022E+02  1.2896157000E+02 0. 9.
      24    2    4    0    0    0  2.6888814186E+01  1.1726106123E+02 -6.1227229613E+01  1.5713406524E+02  8.0431188000E+01 0. 9.
       3    1    6    0  102    0 -1.7058191517E+01  1.1323843715E+01 -2.8338147726E+01  3.4964438375E+01  5.0000000000E-01 0. 9.
      -4    1    6    0    0  102 -1.8859299329E+01 -1.0904657716E+02 -1.1545828107E+02  1.5993653063E+02  1.5000000000E+00 0. 9.
     -13    1    8    0    0    0  5.2084204875E+01  1.0383002412E+02 -4.8846866594E+01  1.2601375261E+02  1.0566000000E-01 0. 9.
      14    1    8    0    0    0 -2.5195390689E+01  1.3431037114E+01 -1.2380363019E+01  3.1120312633E+01  0.0000000000E+00 0. 9.
</event>
<event>
    28   258  1.000000E+00  1.027253E+03  7.979711E-03  9.244939E-02
      21   -1    0    0  101  102  0.0000000000E+00  0.0000000000E+00  7.7501835727E+02  7.7501835727E+02  0.0000000000E+00 0. 9.
       2   -1    0    0  102    0  0.0000000000E+00  0.0000000000E+00 -2.2104899199E+03  2.2104899199E+03  0.0000000000E+00 0. 9.
 1000021    2    1    2  101  103 -9.2017279705E+01 -4.2555379132E+02  2.3334066905E+02  9.9614097616E+02  8.6503512500E+02 0. 9.
 1000002    2    1    2  103    0  9.2017279705E+01  4.2555379132E+02 -1.6688122317E+03  1.9893673010E+03  9.9150632100E+02 0. 9.
 1000023    2    3    0    0    0 -7.4944286842E-01 -3.0183968995E+02  4.5560279643E+02  6.0908536724E+02  2.6889276000E+02 0. 9.
       2    1    3    0  101    0 -2.9686269711E+01 -9.9145278945E+01  4.4148967246E+01  1.1251800369E+02  3.3000000000E-01 0. 9.
      -2    1    3    0    0  103 -6.1581567126E+01 -2.4568822429E+01 -2.6641109462E+02  2.7453760523E+02  3.3000000000E-01 0. 9.
 1000021    2    4    0  103  104  1.2946146599E+02  2.7363955164E+02 -1.5104889489E+03  1.7667771528E+03  8.6503512500E+02 0. 9.
       2    1    4    0  104    0 -3.7444186288E+01  1.5191423968E+02 -1.5832328277E+02  2.2259014819E+02  3.3000000000E-01 0. 9.
 1000022    1    5    0    0    0  2.0776824571E+01 -1.0170253604E+02  1.6970768396E+02  2.3707987432E+02  1.2896157000E+02 0. 9.
      25    2    5    0    0    0 -2.1526267440E+01 -2.0013715391E+02  2.8589511247E+02  3.7200549292E+02  1.2701893900E+02 0. 9.
 1000023    2    8    0    0    0  8.4412551396E+01  2.9957968722E+02 -6.6828998760E+02  7.8472179257E+02  2.6889276000E+02 0. 9.
       6    2    8    0  103    0 -1.4635718981E+02 -7.5496718611E+01 -4.5699576610E+02  5.1571654207E+02  1.7320000000E+02 0. 9.
      -6    2    8    0    0  104  1.9140610440E+02  4.9556583029E+01 -3.8520319519E+02  4.6633881815E+02  1.7320000000E+02 0. 9.
       5    1   11    0  105    0 -6.8790514061E+01 -6.5645080167E+01  1.2144017375E+02  1.5431191521E+02  4.8000000000E+00 0. 9.
      -5    1   11    0    0  105  4.7264246621E+01 -1.3449207374E+02  1.6445493872E+02  2.1769357771E+02  4.8000000000E+00 0. 9.
 1000022    1   12    0    0    0  8.1646061102E-01  1.4082644052E+02 -2.9090871041E+02  3.4798235198E+02  1.2896157000E+02 0. 9.
      25    2   12    0    0    0  8.3596090785E+01  1.5875324670E+02 -3.7738127719E+02  4.3673944060E+02  1.2701893900E+02 0. 9.
      24    2   13    0    0    0 -1.6160983651E+02 -6.0402013078E+01 -4.5550089608E+02  4.9367639682E+02  8.0431188000E+01 0. 9.
       5    1   13    0  103    0  1.5252646699E+01 -1.5094705533E+01 -1.4948700216E+00  2.2040145254E+01  4.8000000000E+00 0. 9.
     -24    2   14    0    0    0  1.2169476579E+02  6.2285133837E+01 -3.5563693316E+02  3.8940449169E+02  8.0431188000E+01 0. 9.
      -5    1   14    0    0  104  6.9711338615E+01 -1.2728550808E+01 -2.9566262036E+01  7.6934326461E+01  4.8000000000E+00 0. 9.
     -15    1   18    0    0    0 -3.2860678804E+01  2.4383975678E+01 -5.5096877551E+01  6.8652939677E+01  1.7770000000E+00 0. 9.
      15    1   18    0    0    0  1.1645676959E+02  1.3436927102E+02 -3.2228439964E+02  3.6808650092E+02  1.7770000000E+00 0. 9.
      -3    1   19    0    0  106 -8.0332764608E+00 -1.5853410506E+01 -1.2788854266E+02  1.2911852500E+02  5.0000000000E-01 0. 9.
       4    1   19    0  106    0 -1.5357656004E+02 -4.4548602571E+01 -3.2761235342E+02  3.6455787181E+02  1.5000000000E+00 0. 9.
       1    1   21    0  107    0  4.5045477478E+01 -1.4099917204E+01 -1.4671560318E+02  1.5412163970E+02  3.3000000000E-01 0. 9.
      -2    1   21    0    0  107  7.6649288310E+01  7.6385051041E+01 -2.0892132997E+02  2.3528285199E+02  3.3000000000E-01 0. 9.
</event>
<event>
    17   258  1.000000E+00  1.096985E+03  7.985737E-03  9.176949E-02
       2   -1    0    0  101    0  0.0000000000E+00  0.0000000000E+00  2.1713742447E+03  2.1713742447E+03  0.0000000000E+00 0. 9.
      21   -1    0    0  102  101  0.0000000000E+00  0.0000000000E+00 -7.9843346207E+02  7.9843346207E+02  0.0000000000E+00 0. 9.
 1000002    2    1    2  103    0  3.2688798090E+02 -4.8045360076E+02  1.5325112814E+03  1.9155591943E+03  9.9150632100E+02 0. 9.
 1000021    2    1    2  102  103 -3.2688798090E+02  4.8045360076E+02 -1.5957049879E+02  1.0542485125E+03  8.6503512500E+02 0. 9.
 1000024    2    3    0    0    0 -2.9540382434E+02 -9.2768138207E+01  6.4496232216E+02  7.6434662802E+02  2.6903535800E+02 0. 9.
       1    1    3    0  103    0  6.2229180524E+02 -3.8768546255E+02  8.8754895925E+02  1.1512125663E+03  3.3000000000E-01 0. 9.
 1000023    2    4    0    0    0  3.0206892226E+01  4.9914931821E+02 -6.6640025063E+01  5.7167010376E+02  2.6889276000E+02 0. 9.
       2    1    4    0  102    0  4.9897038122E+01  3.1089996000E+01  1.0468857592E+01  5.9716062696E+01  3.3000000000E-01 0. 9.
      -2    1    4    0    0  103 -4.0699191125E+02 -4.9785713456E+01 -1.0339933132E+02  4.2286234604E+02  3.3000000000E-01 0. 9.
 1000022    1    5    0    0    0 -1.7625870902E+02  2.9741096913E+01  3.2208730498E+02  3.9028577212E+02  1.2896157000E+02 0. 9.
      24    2    5    0    0    0 -1.1914511532E+02 -1.2250923512E+02  3.2287501718E+02  3.7406085590E+02  8.0431188000E+01 0. 9.
 1000022    1    7    0    0    0  1.5828368047E+00  2.2033830666E+02 -6.7003322957E+01  2.6395455400E+02  1.2896157000E+02 0. 9.
      25    2    7    0    0    0  2.8624055421E+01  2.7881101156E+02  3.6329789401E-01  3.0771554976E+02  1.2701893900E+02 0. 9.
     -13    1   11    0    0    0 -8.5702970576E+01 -1.2819829421E+02  2.7663048637E+02  3.1670844472E+02  1.0566000000E-01 0. 9.
      14    1   11    0    0    0 -3.3442144744E+01  5.6890590875E+00  4.6244530817E+01  5.7352411186E+01  0.0000000000E+00 0. 9.
       5    1   13    0  104    0  4.5373640936E+01  2.5641956347E+02  3.5169120833E+01  2.6281108592E+02  4.8000000000E+00 0. 9.
      -5    1   13    0    0  104 -1.6749585515E+01  2.2391448085E+01 -3.4805822939E+01  4.4904463839E+01  4.8000000000E+00 0. 9.
</event>
<event>
    12   230  1.000000E+00  2.890840E+02  7.865149E-03  1.078793E-01
       1   -1    0    0  101    0  0.0000000000E+00  0.0000000000E+00  3.1001254552E+02  3.1001254552E+02  0.0000000000E+00 0. 9.
      -2   -1    0    0    0  101  0.0000000000E+00  0.0000000000E+00 -3.4894865501E+02  3.4894865501E+02  0.0000000000E+00 0. 9.
 1000023    2    1    2    0    0 -8.6450805393E+01  6.1271157093E+01  1.3768219190E+02  3.2013684385E+02  2.6889276000E+02 0. 9.
-1000024    2    1    2    0    0  8.6450805393E+01 -6.1271157093E+01 -1.7661830139E+02  3.3882435669E+02  2.6903535800E+02 0. 9.
 1000022    1    3    0    0    0 -6.1881641385E+01  6.9149159373E+01  8.5414004796E+01  1.8038176885E+02  1.2896157000E+02 0. 9.
      25    2    3    0    0    0 -2.4569164008E+01 -7.8780022806E+00  5.2268187104E+01  1.3975507500E+02  1.2701893900E+02 0. 9.
 1000022    1    4    0    0    0  3.4909557125E+01 -1.1190609572E+02 -7.2605715440E+01  1.8879705477E+02  1.2896157000E+02 0. 9.
     -24    2    4    0    0    0  5.1541248268E+01  5.0634938624E+01 -1.0401258595E+02  1.5002730192E+02  8.0431188000E+01 0. 9.
       5    1    6    0  102    0 -4.2966248579E+01  4.6930117809E+01  5.1071470710E+01  8.1730469196E+01  4.8000000000E+00 0. 9.
      -5    1    6    0    0  102  1.8397084571E+01 -5.4808120090E+01  1.1967163945E+00  5.8024605803E+01  4.8000000000E+00 0. 9.
      11    1    8    0    0    0 -1.7337895861E+00  3.7872986595E+01 -8.3188890476E+01  9.1420788877E+01  5.1000000000E-04 0. 9.
     -12    1    8    0    0    0  5.3275037854E+01  1.2761952029E+01 -2.0823695473E+01  5.8606513044E+01  0.0000000000E+00 0. 9.
</event>
<event>
    11   272  1.000000E+00  1.386486E+03  8.007297E-03  8.942430E-02
       2   -1    0    0  101    0  0.0000000000E+00  0.0000000000E+00  1.3167763683E+03  1.3167763683E+03  0.0000000000E+00 0. 9.
       2   -1    0    0  102    0  0.0000000000E+00  0.0000000000E+00 -1.8702441644E+03  1.8702441644E+03  0.0000000000E+00 0. 9.
 2000002    2    1    2  102    0 -5.8470585885E+02  7.7316711810E+02  4.6969370224E+02  1.4638833516E+03  9.9129912700E+02 0. 9.
 2000002    2    1    2  101    0  5.8470585885E+02 -7.7316711810E+02 -1.0231614983E+03  1.7231371811E+03  9.9129912700E+02 0. 9.
 1000021    2    3    0  102  103 -4.7358282120E+02  7.5785401104E+02  3.3397406457E+02  1.2878073745E+03  8.6503512500E+02 0. 9.
       2    1    3    0  103    0 -1.1112303766E+02  1.5313107062E+01  1.3571963766E+02  1.7607597705E+02  3.3000000000E-01 0. 9.
 1000022    1    4    0    0    0 -1.8431627963E+02  7.6914030488E+01 -2.1547808787E+02  3.2085846087E+02  1.2896157000E+02 0. 9.
       2    1    4    0  101    0  7.6902213848E+02 -8.5008114859E+02 -8.0768341046E+02  1.4022787202E+03  3.3000000000E-01 0. 9.
 1000022    1    5    0    0    0 -4.6159807522E+02  1.1706318022E+02  2.2246218634E+02  5.4119966934E+02  1.2896157000E+02 0. 9.
       2    1    5    0  102    0  2.1260602454E+01 -4.4946831137E+01 -5.9892056221E+00  5.0082036000E+01  3.3000000000E-01 0. 9.
      -2    1    5    0    0  103 -3.3245348433E+01  6.8573766196E+02  1.1750108386E+02  6.9652566918E+02  3.3000000000E-01 0. 9.
</event>
<event>
    14   254  1.000000E+00  7.746398E+02  7.953921E-03  9.548968E-02
      21   -1    0    0  101  102  0.0000000000E+00  0.0000000000E+00  9.4123716707E+02  9.4123716707E+02  0.0000000000E+00 0. 9.
       2   -1    0    0  102    0  0.0000000000E+00  0.0000000000E+00 -6.2374312386E+02  6.2374312386E+02  0.0000000000E+00 0. 9.
 1000024    2    1    2    0    0  1.5595302277E+02  2.1265047028E+02  3.7908873005E+02  5.3444350209E+02  2.6903535800E+02 0. 9.
 1000001    2    1    2  101    0 -1.5595302277E+02 -2.1265047028E+02 -6.1594686840E+01  1.0305367888E+03  9.9431916400E+02 0. 9.
 1000022    1    3    0    0    0  3.3674170395E+01  1.6742796744E+02  1.6041216222E+02  2.6744947627E+02  1.2896157000E+02 0. 9.
      24    2    3    0    0    0  1.2227885238E+02  4.5222502836E+01  2.1867656783E+02  2.6699402582E+02  8.0431188000E+01 0. 9.
-1000024    2    4    0    0    0 -4.1119320233E+02 -4.5809411654E+02 -7.6374551193E+01  6.7612363158E+02  2.6903535800E+02 0. 9.
       2    1    4    0  101    0  2.5524017956E+02  2.4544364626E+02  1.4779864352E+01  3.5441315727E+02  3.3000000000E-01 0. 9.
     -15    1    6    0    0    0  3.2353110022E+01  1.7916315613E+01  1.0341321407E+01  3.8442408232E+01  1.7770000000E+00 0. 9.
      16    1    6    0    0    0  8.9925742354E+01  2.7306187222E+01  2.0833524642E+02  2.2855161759E+02  0.0000000000E+00 0. 9.
 1000022    1    7    0    0    0 -3.7691483341E+02 -3.9921587534E+02 -8.5076676541E+01  5.7035711111E+02  1.2896157000E+02 0. 9.
     -24    2    7    0    0    0 -3.4278368925E+01 -5.8878241200E+01  8.7021253477E+00  1.0576652047E+02  8.0431188000E+01 0. 9.
      13    1   12    0    0    0 -5.2821815064E+01 -1.1802415161E+01  1.0520858661E+01  5.5137471662E+01  1.0566000000E-01 0. 9.
     -14    1   12    0    0    0  1.8543446140E+01 -4.7075826038E+01 -1.8187333129E+00  5.0629048804E+01  0.0000000000E+00 0. 9.
</event>
<event>
    12   230  1.000000E+00  4.567322E+02  7.906094E-03  1.017531E-01
      -1   -1    0    0    0  101  0.0000000000E+00  0.0000000000E+00  4.5013278098E+02  4.5013278098E+02  0.0000000000E+00 0. 9.
       2   -1    0    0  101    0  0.0000000000E+00  0.0000000000E+00 -5.0054586602E+02  5.0054586602E+02  0.0000000000E+00 0. 9.
 1000023    2    1    2    0    0 -2.7907702474E+01  3.6808125880E+02  1.0423630913E+02  4.6843481666E+02  2.6889276000E+02 0. 9.
 1000024    2    1    2    0    0  2.7907702474E+01 -3.6808125880E+02 -1.5464939417E+02  4.8224383035E+02  2.6903535800E+02 0. 9.
 1000022    1    3    0    0    0 -5.9860978832E+01  2.1027210713E+02 -4.3904082535E+00  2.5386622076E+02  1.2896157000E+02 0. 9.
      23    2    3    0    0    0  3.1953276358E+01  1.5780915167E+02  1.0862671739E+02  2.1456859590E+02  9.1187600000E+01 0. 9.
 1000022    1    4    0    0    0  7.1948410070E+00 -2.3438559999E+02 -8.9537873004E+00  2.6776786974E+02  1.2896157000E+02 0. 9.
      24    2    4    0    0    0  2.0712861467E+01 -1.3369565880E+02 -1.4569560687E+02  2.1447596061E+02  8.0431188000E+01 0. 9.
      16    1    6    0    0    0  8.9721877825E+00  1.6139945274E+02  9.2216775304E+01  1.8610270590E+02  0.0000000000E+00 0. 9.
     -16    1    6    0    0    0  2.2981088575E+01 -3.5903010671E+00  1.6409942082E+01  2.8465889992E+01  0.0000000000E+00 0. 9.
      -1    1    8    0    0  102 -2.8494780838E+01 -7.4046961174E+01 -8.4058775023E+01  1.1558932283E+02  3.3000000000E-01 0. 9.
       2    1    8    0  102    0  4.9207642305E+01 -5.9648697630E+01 -6.1636831850E+01  9.8886637777E+01  3.3000000000E-01 0. 9.
</event>
<event>
    20   259  1.000000E+00  9.839220E+02  7.975763E-03  9.290104E-02
       2   -1    0    0  101    0  0.0000000000E+00  0.0000000000E+00  1.4693809578E+03  1.4693809578E+03  0.0000000000E+00 0. 9.
      21   -1    0    0  102  101  0.0000000000E+00  0.0000000000E+00 -7.7067573117E+02  7.7067573117E+02  0.0000000000E+00 0. 9.
 2000002    2    1    2  103    0  1.5159111393E+02 -2.8221048233E+02  7.9798970747E+02  1.3122820408E+03  9.9129912700E+02 0. 9.
 1000021    2    1    2  102  103 -1.5159111393E+02  2.8221048233E+02 -9.9284480860E+01  9.2777464817E+02  8.6503512500E+02 0. 9.
 1000021    2    3    0  103  104  2.2434904744E+02 -2.2342688098E+02  7.9799715625E+02  1.2187441467E+03  8.6503512500E+02 0. 9.
       2    1    3    0  104    0 -7.2757933511E+01 -5.8783601346E+01 -7.4487830325E-03  9.3537894093E+01  3.3000000000E-01 0. 9.
 1000022    1    4    0    0    0  1.5143746475E+02  1.7575209999E+02 -3.2257952841E+01  2.6738318653E+02  1.2896157000E+02 0. 9.
       2    1    4    0  102    0 -3.7223744969E+02  3.8440303955E+01  1.6493354781E+02  4.0895178201E+02  3.3000000000E-01 0. 9.
      -2    1    4    0    0  103  6.9208871007E+01  6.8018078383E+01 -2.3196007582E+02  2.5143967962E+02  3.3000000000E-01 0. 9.
-1000024    2    5    0    0    0  2.7563912806E+01 -1.9922835613E+02  1.8941773920E+02  3.8563040719E+02  2.6903535800E+02 0. 9.
       6    2    5    0  103    0  2.0987259708E+02  1.5495367283E+02  1.6376742773E+02  3.5337679340E+02  1.7320000000E+02 0. 9.
      -5    1    5    0    0  104 -1.3087462441E+01 -1.7915219768E+02  4.4481198933E+02  4.7973694610E+02  4.8000000000E+00 0. 9.
 1000022    1   10    0    0    0  7.4718779960E+01 -6.0804499556E+01  1.3500506582E+02  2.1008935618E+02  1.2896157000E+02 0. 9.
     -24    2   10    0    0    0 -4.7154867154E+01 -1.3842385657E+02  5.4412673379E+01  1.7554105102E+02  8.0431188000E+01 0. 9.
      24    2   11    0    0    0  1.3151652146E+02  5.9354445186E+01  1.5946113319E+02  2.2960090283E+02  8.0431188000E+01 0. 9.
       5    1   11    0  103    0  7.8356075621E+01  9.5599227644E+01  4.3062945376E+00  1.2377589057E+02  4.8000000000E+00 0. 9.
       1    1   14    0  105    0 -4.7865383991E+01 -8.9455858084E+01 -1.1656751820E+00  1.0146385183E+02  3.3000000000E-01 0. 9.
      -2    1   14    0    0  105  7.1051683721E-01 -4.8967998490E+01  5.5578348561E+01  7.4077199185E+01  3.3000000000E-01 0. 9.
      -1    1   15    0    0  106  7.6616777951E+01  5.6921377201E+01  1.4355608546E+02  1.7239092905E+02  3.3000000000E-01 0. 9.
       2    1   15    0  106    0  5.4899743507E+01  2.4330679854E+00  1.5905047732E+01  5.7209973784E+01  3.3000000000E-01 0. 9.
</event>
<event>
    17   258  1.000000E+00  1.013591E+03  7.978484E-03  9.258924E-02
      21   -1    0    0  101  102  0.0000000000E+00  0.0000000000E+00  7.4805044076E+02  7.4805044076E+02  0.0000000000E+00 0. 9.
       2   -1    0    0  102    0  0.0000000000E+00  0.0000000000E+00 -1.8399281186E+03  1.8399281186E+03  0.0000000000E+00 0. 9.
 1000021    2    1    2  101  103 -3.4787492540E+02  2.0165367534E+02  1.3126530291E+02  9.6291095940E+02  8.6503512500E+02 0. 9.
 1000002    2    1    2  103    0  3.4787492540E+02 -2.0165367534E+02 -1.2231429807E+03  1.6250675999E+03  9.9150632100E+02 0. 9.
 1000023    2    3    0    0    0 -3.2564423867E+01  3.9660089522E+01 -7.5308621304E+01  2.8391560229E+02  2.6889276000E+02 0. 9.
       4    1    3    0  101    0 -9.3540346150E+01 -1.9992166593E+02  4.8039933406E+01  2.2589500674E+02  1.5000000000E+00 0. 9.
      -4    1    3    0    0  103 -2.2177015538E+02  3.6191525174E+02  1.5853399081E+02  4.5310035037E+02  1.5000000000E+00 0. 9.
 1000024    2    4    0    0    0  6.7225944631E+02 -1.0650778762E+02 -8.3559790552E+02  1.1108017625E+03  2.6903535800E+02 0. 9.
       1    1    4    0  103    0 -3.2438452091E+02 -9.5145887712E+01 -3.8754507519E+02  5.1426583744E+02  3.3000000000E-01 0. 9.
 1000022    1    5    0    0    0 -6.9327000196E+01  7.5879106745E+01 -2.2043866314E+01  1.6637575056E+02  1.2896157000E+02 0. 9.
      23    2    5    0    0    0  3.6762576328E+01 -3.6219017223E+01 -5.3264754989E+01  1.1753985173E+02  9.1187600000E+01 0. 9.
 1000022    1    8    0    0    0  5.8800249028E+02 -6.2347685272E+01 -7.2318403052E+02  9.4300603973E+02  1.2896157000E+02 0. 9.
      24    2    8    0    0    0  8.4256956029E+01 -4.4160102351E+01 -1.1241387501E+02  1.6779572276E+02  8.0431188000E+01 0. 9.
      11    1   11    0    0    0  1.9439290961E+01 -1.3970506352E+00  2.4072892572E+01  3.0973245561E+01  5.1000000000E-04 0. 9.
     -11    1   11    0    0    0  1.7323285368E+01 -3.4821966588E+01 -7.7337647562E+01  8.6566606169E+01  5.1000000000E-04 0. 9.
     -13    1   13    0    0    0  1.0035277523E+02 -3.7962559830E+01 -9.8145633457E+01  1.4541118243E+02  1.0566000000E-01 0. 9.
      14    1   13    0    0    0 -1.6095819196E+01 -6.1975425216E+00 -1.4268241552E+01  2.2384540333E+01  0.0000000000E+00 0. 9.
</event>
<event>
    12   226  1.000000E+00  2.950965E+02  7.866982E-03  1.075878E-01
       1   -1    0    0  101    0  0.0000000000E+00  0.0000000000E+00  6.5213410604E+01  6.5213410604E+01  0.0000000000E+00 0. 9.
      -1   -1    0    0    0  101  0.0000000000E+00  0.0000000000E+00 -1.6292591511E+03  1.6292591511E+03  0.0000000000E+00 0. 9.
-1000024    2    1    2    0    0 -5.2702544371E+01 -1.0919862143E+02 -4.2216984662E+02  5.1508183850E+02  2.6903535800E+02 0. 9.
 1000024    2    1    2    0    0  5.2702544371E+01  1.0919862143E+02 -1.1418758939E+03  1.1793907232E+03  2.6903535800E+02 0. 9.
 1000022    1    3    0    0    0  1.0440550478E+01 -3.7882788752E+01 -3.4004473394E+02  3.6579450296E+02  1.2896157000E+02 0. 9.
     -24    2    3    0    0    0 -6.3143094849E+01 -7.1315832677E+01 -8.2125112679E+01  1.4928733554E+02  8.0431188000E+01 0. 9.
 1000022    1    4    0    0    0  4.6771369253E+01 -1.8211086210E+01 -4.2997708995E+02  4.5169745301E+02  1.2896157000E+02 0. 9.
      24    2    4    0    0    0  5.9311751184E+00  1.2740970764E+02 -7.1189880392E+02  7.2769327018E+02  8.0431188000E+01 0. 9.
       1    1    6    0  102    0 -7.1895430101E+01 -8.1148451297E+01 -6.1013356626E+01  1.2440563735E+02  3.3000000000E-01 0. 9.
      -2    1    6    0    0  102  8.7523352528E+00  9.8326186206E+00 -2.1111756052E+01  2.4881698192E+01  3.3000000000E-01 0. 9.
      -3    1    8    0    0  103 -3.0978518133E+01  8.1892734692E+01 -3.3453200659E+02  3.4580052344E+02  5.0000000000E-01 0. 9.
       4    1    8    0  103    0  3.6909693251E+01  4.5516972947E+01 -3.7736679733E+02  3.8189274674E+02  1.5000000000E+00 0. 9.
</event>
<event>
    12   226  1.000000E+00  3.418907E+02  7.880118E-03  1.055483E-01
      -2   -1    0    0    0  101  0.0000000000E+00  0.0000000000E+00  1.7969673870E+02  1.7969673870E+02  0.0000000000E+00 0. 9.
       2   -1    0    0  101    0  0.0000000000E+00  0.0000000000E+00 -7.4022399066E+02  7.4022399066E+02  0.0000000000E+00 0. 9.
-1000024    2    1    2    0    0 -8.2025661053E+01 -1.9437347197E+02 -4.4041828179E+02  5.5754600031E+02  2.6903535800E+02 0. 9.
 1000024    2    1    2    0    0  8.2025661053E+01  1.9437347197E+02 -1.2010897017E+02  3.6237472904E+02  2.6903535800E+02 0. 9.
 1000022    1    3    0    0    0 -6.6469062081E+01 -1.3404033991E+02 -4.0360882540E+02  4.4935077547E+02  1.2896157000E+02 0. 9.
     -24    2    3    0    0    0 -1.5556598971E+01 -6.0333132063E+01 -3.6809456386E+01  1.0819522484E+02  8.0431188000E+01 0. 9.
 1000022    1    4    0    0    0 -2.5546219904E+01  1.2222375173E+02 -2.1478894370E+01  1.8078629450E+02  1.2896157000E+02 0. 9.
      24    2    4    0    0    0  1.0757188096E+02  7.2149720240E+01 -9.8630075799E+01  1.8158843454E+02  8.0431188000E+01 0. 9.
      11    1    6    0    0    0 -2.7155673408E+01 -9.7313151567E-01  1.2736439788E+01  3.0009906397E+01  5.1000000000E-04 0. 9.
     -12    1    6    0    0    0  1.1599074437E+01 -5.9360000547E+01 -4.9545896173E+01  7.8185318445E+01  0.0000000000E+00 0. 9.
      -1    1    8    0    0  102  1.0079640645E+02  5.4548896244E+01 -1.1057967282E+02  1.5925913027E+02  3.3000000000E-01 0. 9.
       2    1    8    0  102    0  6.7754745058E+00  1.7600823996E+01  1.1949597019E+01  2.2329304266E+01  3.3000000000E-01 0. 9.
</event>
<event>
    12   230  1.000000E+00  2.796049E+02  7.862181E-03  1.083548E-01
       2   -1    0    0  101    0  0.0000000000E+00  0.0000000000E+00  8.3590735265E+02  8.3590735265E+02  0.0000000000E+00 0. 9.
      -1   -1    0    0    0  101  0.0000000000E+00  0.0000000000E+00 -1.0475489136E+02  1.0475489136E+02  0.0000000000E+00 0. 9.
 1000024    2    1    2    0    0  4.7127153103E+00 -7.6256296495E+01  2.1166754079E+02  3.5074264656E+02  2.6903535800E+02 0. 9.
 1000023    2    1    2    0    0 -4.7127153103E+00  7.6256296495E+01  5.1948492050E+02  5.8991959744E+02  2.6889276000E+02 0. 9.
 1000022    1    3    0    0    0  1.2254754141E+01  4.1585657074E+01  9.0460044236E+01  1.6338192071E+02  1.2896157000E+02 0. 9.
      24    2    3    0    0    0 -7.5420388310E+00 -1.1784195357E+02  1.2120749655E+02  1.8736072586E+02  8.0431188000E+01 0. 9.
 1000022    1    4    0    0    0  2.4569741337E+00  6.5334547709E+00  1.8809214214E+02  2.2816323811E+02  1.2896157000E+02 0. 9.
      25    2    4    0    0    0 -7.1696894440E+00  6.9722841724E+01  3.3139277836E+02  3.6175635933E+02  1.2701893900E+02 0. 9.
      -1    1    6    0    0  102 -1.9417582303E+00 -1.2947656065E+02  1.1425872247E+02  1.7269370210E+02  3.3000000000E-01 0. 9.
       2    1    6    0  102    0 -5.6002806007E+00  1.1634607083E+01  6.9487740822E+00  1.4667023762E+01  3.3000000000E-01 0. 9.
       5    1    8    0  103    0 -2.6845519388E+01 -2.6549406439E+01  1.5680723384E+02  1.6136016076E+02  4.8000000000E+00 0. 9.
      -5    1    8    0    0  103  1.9675829944E+01  9.6272248163E+01  1.7458554451E+02  2.0039619857E+02  4.8000000000E+00 0. 9.
</event>
<event>
    12   230  1.000000E+00  2.950214E+02  7.866960E-03  1.075913E-01
      -2   -1    0    0    0  101  0.0000000000E+00  0.0000000000E+00  5.2763294505E+01  5.2763294505E+01  0.0000000000E+00 0. 9.
       1   -1    0    0  101    0  0.0000000000E+00  0.0000000000E+00 -1.6536051081E+03  1.6536051081E+03  0.0000000000E+00 0. 9.
-1000024    2    1    2    0    0 -4.7748815033E+01 -1.1142721097E+02 -8.4265438355E+02  8.9282831869E+02  2.6903535800E+02 0. 9.
 1000023    2    1    2    0    0  4.7748815033E+01  1.1142721097E+02 -7.5818743007E+02  8.1354008394E+02  2.6889276000E+02 0. 9.
 1000022    1    3    0    0    0 -1.1097602476E+02 -6.3013789430E+01 -5.4312372275E+02  5.7262630089E+02  1.2896157000E+02 0. 9.
     -24    2    3    0    0    0  6.3227209724E+01 -4.8413421544E+01 -2.9953066080E+02  3.2020201779E+02  8.0431188000E+01 0. 9.
 1000022    1    4    0    0    0  5.1909025239E+01  8.1062582659E+01 -4.7850948134E+02  5.0484462905E+02  1.2896157000E+02 0. 9.
      25    2    4    0    0    0 -4.1602102069E+00  3.0364628314E+01 -2.7967794873E+02  3.0869545489E+02  1.2701893900E+02 0. 9.
       1    1    6    0  102    0  8.1045552149E+01 -4.8653824773E+01 -2.6476935679E+02  2.8113786189E+02  3.3000000000E-01 0. 9.
      -2    1    6    0    0  102 -1.7818342424E+01  2.4040322947E-01 -3.4761304009E+01  3.9064155908E+01  3.3000000000E-01 0. 9.
       5    1    8    0  103    0 -3.1737900144E+01  4.2153267870E+01 -2.7234298077E+02  2.7744897094E+02  4.8000000000E+00 0. 9.
      -5    1    8    0    0  103  2.7577689937E+01 -1.1788639556E+01 -7.3349679589E+00  3.1246483959E+01  4.8000000000E+00 0. 9.
</event>
<event>
    12   230  1.000000E+00  2.718878E+02  7.859691E-03  1.087573E-01
      -1   -1    0    0    0  101  0.0000000000E+00  0.0000000000E+00  1.1034483952E+02  1.1034483952E+02  0.0000000000E+00 0. 9.
       2   -1    0    0  101    0  0.0000000000E+00  0.0000000000E+00 -6.8388551842E+02  6.8388551842E+02  0.0000000000E+00 0. 9.
 1000023    2    1    2    0    0  3.7591413682E+01  1.2967813332E+01 -3.4343240191E+02  4.3798448560E+02  2.6889276000E+02 0. 9.
 1000024    2    1    2    0    0 -3.7591413682E+01 -1.2967813332E+01 -2.3010827700E+02  3.5624587235E+02  2.6903535800E+02 0. 9.
 1000022    1    3    0    0    0  5.6423424716E+01  1.6760514145E+01 -2.0372587108E+02  2.4819314007E+02  1.2896157000E+02 0. 9.
      25    2    3    0    0    0 -1.8832011034E+01 -3.7927008124E+00 -1.3970653082E+02  1.8979134553E+02  1.2701893900E+02 0. 9.
 1000022    1    4    0    0    0  6.0872661304E+01 -2.8536664608E+00 -1.0106827741E+02  1.7481277854E+02  1.2896157000E+02 0. 9.
      24    2    4    0    0    0 -9.8464074985E+01 -1.0114146872E+01 -1.2903999959E+02  1.8143309380E+02  8.0431188000E+01 0. 9.
       5    1    6    0  102    0  1.1588251017E+01  3.4497459205E+01  4.9291762139E+00  3.7036455437E+01  4.8000000000E+00 0. 9.
      -5    1    6    0    0  102 -3.0420262052E+01 -3.8290160017E+01 -1.4463570704E+02  1.5275489009E+02  4.8000000000E+00 0. 9.
      -3    1    8    0    0  103  7.9134321333E+00  3.2406320562E+00 -4.3315392383E+01  4.4154244661E+01  5.0000000000E-01 0. 9.
       4    1    8    0  103    0 -1.0637750712E+02 -1.3354778928E+01 -8.5724607203E+01  1.3727884914E+02  1.5000000000E+00 0. 9.
</event>
<event>
    22   272  1.000000E+00  1.027524E+03  7.979736E-03  9.244664E-02
       2   -1    0    0  101    0  0.0000000000E+00  0.0000000000E+00  9.9556961696E+02  9.9556961696E+02  0.0000000000E+00 0. 9.
       2   -1    0    0  102    0  0.0000000000E+00  0.0000000000E+00 -1.5683675219E+03  1.5683675219E+03  0.0000000000E+00 0. 9.
 2000002    2    1    2  101    0  2.0055559602E+02 -1.8140881372E+02 -1.0159016854E+03  1.4449435624E+03  9.9129912700E+02 0. 9.
 2000002    2    1    2  102    0 -2.0055559602E+02  1.8140881372E+02  4.4310378048E+02  1.1189935765E+03  9.9129912700E+02 0. 9.
 1000021    2    3    0  101  103  2.0333584942E+02 -1.7429065613E+02 -7.4139725440E+02  1.1703325838E+03  8.6503512500E+02 0. 9.
       2    1    3    0  103    0 -2.7802533988E+00 -7.1181575908E+00 -2.7450443104E+02  2.7461097854E+02  3.3000000000E-01 0. 9.
 1000021    2    4    0  102  104 -1.2762190025E+02  2.4404856479E+02  4.6560333606E+02  1.0202545199E+03  8.6503512500E+02 0. 9.
       2    1    4    0  104    0 -7.2933695764E+01 -6.2639751072E+01 -2.2499555577E+01  9.8739056575E+01  3.3000000000E-01 0. 9.
 1000023    2    5    0    0    0 -9.9558538159E+01  2.4397790082E+02 -2.6178434454E+02  4.5855368065E+02  2.6889276000E+02 0. 9.
       1    1    5    0  101    0  2.5781439212E+01 -1.0115262381E+02 -1.0666585810E+02  1.4924560327E+02  3.3000000000E-01 0. 9.
      -1    1    5    0    0  103  2.7711294836E+02 -3.1711593314E+02 -3.7294705175E+02  5.6253329991E+02  3.3000000000E-01 0. 9.
 1000024    2    7    0    0    0 -9.0654988546E+01  1.5600049294E+02  1.4380621201E+02  3.5442168559E+02  2.6903535800E+02 0. 9.
      -2    1    7    0    0  104 -2.7627802001E+02 -6.4433914122E+01  8.4733138496E+01  2.9607615117E+02  3.3000000000E-01 0. 9.
       1    1    7    0  102    0  2.3931110831E+02  1.5248198597E+02  2.3706398555E+02  3.6975668317E+02  3.3000000000E-01 0. 9.
 1000022    1    9    0    0    0 -7.3767980416E+00  1.2233006287E+02 -1.2544591423E+02  2.1768515191E+02  1.2896157000E+02 0. 9.
      25    2    9    0    0    0 -9.2181740118E+01  1.2164783795E+02 -1.3633843032E+02  2.4086852873E+02  1.2701893900E+02 0. 9.
 1000022    1   12    0    0    0  1.3623370568E+01  1.2912306282E+02  1.1746461049E+02  2.1745662288E+02  1.2896157000E+02 0. 9.
      24    2   12    0    0    0 -1.0427835911E+02  2.6877430123E+01  2.6341601521E+01  1.3696506271E+02  8.0431188000E+01 0. 9.
       5    1   16    0  105    0 -9.6570682970E+00  5.1368056942E+01 -1.2021684847E+02  1.3117571001E+02  4.8000000000E+00 0. 9.
      -5    1   16    0    0  105 -8.2524671820E+01  7.0279781007E+01 -1.6121581849E+01  1.0969281872E+02  4.8000000000E+00 0. 9.
      -1    1   18    0    0  106 -1.5943698876E+01  1.6760266325E+01 -2.5187383730E+01  3.4199726027E+01  3.3000000000E-01 0. 9.
       2    1   18    0  106    0 -8.8334660239E+01  1.0117163798E+01  5.1528985251E+01  1.0276533668E+02  3.3000000000E-01 0. 9.
</event>
<event>
    16   259  1.000000E+00  1.016263E+03  7.978726E-03  9.256170E-02
      21   -1    0    0  101  102  0.0000000000E+00  0.0000000000E+00  8.6666643073E+02  8.6666643073E+02  0.0000000000E+00 0. 9.
       3   -1    0    0  102    0  0.0000000000E+00  0.0000000000E+00 -1.5058069750E+03  1.5058069750E+03  0.0000000000E+00 0. 9.
 1000021    2    1    2  101  103  3.6135539290E+02  1.9060365853E+02  2.3925693050E+02  9.8612226468E+02  8.6503512500E+02 0. 9.
 2000003    2    1    2  103    0 -3.6135539290E+02 -1.9060365853E+02 -8.7839747477E+02  1.3863511411E+03  9.9170554500E+02 0. 9.
 1000022    1    3    0    0    0 -4.4498582719E+01  2.2606767480E+02  1.1590055165E+02  2.8835870346E+02  1.2896157000E+02 0. 9.
       4    1    3    0  101    0  4.6956585689E+02  1.4806673899E+02  9.4619059792E+01  5.0136899548E+02  1.5000000000E+00 0. 9.
      -4    1    3    0    0  103 -6.3711881271E+01 -1.8353075527E+02  2.8737319058E+01  1.9639456574E+02  1.5000000000E+00 0. 9.
 1000021    2    4    0  103  104 -4.4133246126E+02 -1.7840108942E+02 -8.4201586403E+02  1.2976431608E+03  8.6503512500E+02 0. 9.
       3    1    4    0  104    0  7.9977068357E+01 -1.2202569107E+01 -3.6381610739E+01  8.8707980226E+01  5.0000000000E-01 0. 9.
 1000023    2    8    0    0    0 -9.6871158338E+01 -1.0115312793E+02 -4.3747539032E+02  5.3226310235E+02  2.6889276000E+02 0. 9.
       5    1    8    0  103    0 -3.7579866378E+02 -1.7193266120E+00 -5.0894761495E+02  6.3267551442E+02  4.8000000000E+00 0. 9.
      -5    1    8    0    0  104  3.1337360854E+01 -7.5528634877E+01  1.0440714124E+02  1.3270454406E+02  4.8000000000E+00 0. 9.
 1000022    1   10    0    0    0 -3.6618765159E+01 -4.2079914138E+01 -2.7871710146E+02  3.1213132223E+02  1.2896157000E+02 0. 9.
      25    2   10    0    0    0 -6.0252393179E+01 -5.9073213792E+01 -1.5875828886E+02  2.2013178012E+02  1.2701893900E+02 0. 9.
       5    1   14    0  105    0  2.6635696301E+00 -8.1434041661E+01 -1.1153123763E+02  1.3820584181E+02  4.8000000000E+00 0. 9.
      -5    1   14    0    0  105 -6.2915962809E+01  2.2360827869E+01 -4.7227051234E+01  8.1925938307E+01  4.8000000000E+00 0. 9.
</event>
<event>
    21   258  1.000000E+00  1.002207E+03  7.977449E-03  9.270753E-02
       2   -1    0    0  101    0  0.0000000000E+00  0.0000000000E+00  1.1268196878E+03  1.1268196878E+03  0.0000000000E+00 0. 9.
      21   -1    0    0  102  101  0.0000000000E+00  0.0000000000E+00 -1.0627682554E+03  1.0627682554E+03  0.0000000000E+00 0. 9.
 1000002    2    1    2  103    0 -2.5564780075E+02 -2.7088502289E+02  4.7651035033E+02  1.1614135320E+03  9.9150632100E+02 0. 9.
 1000021    2    1    2  102  103  2.5564780075E+02  2.7088502289E+02 -4.1245891792E+02  1.0281744113E+03  8.6503512500E+02 0. 9.
 1000024    2    3    0    0    0 -3.4421195458E+02 -3.2349175051E+02 -1.1948322329E+02  5.5658336916E+02  2.6903535800E+02 0. 9.
       1    1    3    0  103    0  8.8564153830E+01  5.2606727616E+01  5.9599357362E+02  6.0483016280E+02  3.3000000000E-01 0. 9.
-1000024    2    4    0    0    0  4.4783480879E+02  1.4314523206E+02 -1.7341100979E+02  5.6876882439E+02  2.6903535800E+02 0. 9.
       6    2    4    0  102    0 -1.4255883818E+02  9.6878273041E+01 -3.4687968069E+01  2.4679934615E+02  1.7320000000E+02 0. 9.
      -5    1    4    0    0  103 -4.9628169860E+01  3.0861517792E+01 -2.0435994006E+02  2.1260624080E+02  4.8000000000E+00 0. 9.
 1000022    1    5    0    0    0 -9.6931629674E+01 -1.1973211904E+02  1.1441521493E+01  2.0123000798E+02  1.2896157000E+02 0. 9.
      24    2    5    0    0    0 -2.4728032490E+02 -2.0375963147E+02 -1.3092474478E+02  3.5535336118E+02  8.0431188000E+01 0. 9.
 1000022    1    7    0    0    0  1.9820894986E+02  1.4677356191E+02 -7.1301028269E+01  2.8730504598E+02  1.2896157000E+02 0. 9.
     -24    2    7    0    0    0  2.4962585893E+02 -3.6283298451E+00 -1.0210998152E+02  2.8146377840E+02  8.0431188000E+01 0. 9.
      24    2    8    0    0    0 -8.3169860731E+01 -9.4034329757E+00 -4.5048722831E+01  1.2451591753E+02  8.0431188000E+01 0. 9.
       5    1    8    0  102    0 -5.9388977445E+01  1.0628170602E+02  1.0360754762E+01  1.2228342862E+02  4.8000000000E+00 0. 9.
      -3    1   11    0    0  104 -2.1856121928E+02 -2.0746029227E+02 -1.2037697610E+02  3.2449906906E+02  5.0000000000E-01 0. 9.
       4    1   11    0  104    0 -2.8719105624E+01  3.7006608026E+00 -1.0547768678E+01  3.0854292121E+01  1.5000000000E+00 0. 9.
      11    1   13    0    0    0  7.3993640861E+01 -1.0433812475E+01 -7.0786733357E+01  1.0293048601E+02  5.1000000000E-04 0. 9.
     -12    1   13    0    0    0  1.7563221807E+02  6.8054826300E+00 -3.1323248167E+01  1.7853329239E+02  0.0000000000E+00 0. 9.
      -3    1   14    0    0  105 -5.0321248180E+01 -4.4628770087E+01 -1.9812466138E+01  7.0119462008E+01  5.0000000000E-01 0. 9.
       4    1   14    0  105    0 -3.2848612551E+01  3.5225337111E+01 -2.5236256693E+01  5.4396455519E+01  1.5000000000E+00 0. 9.
</event>
<event>
    21   258  1.000000E+00  9.703736E+02  7.974493E-03  9.304729E-02
      21   -1    0    0  101  102  0.0000000000E+00  0.0000000000E+00  8.5741354505E+02  8.5741354505E+02  0.0000000000E+00 0. 9.
       2   -1    0    0  102    0  0.0000000000E+00  0.0000000000E+00 -1.1706939845E+03  1.1706939845E+03  0.0000000000E+00 0. 9.
 1000021    2    1    2  101  103 -1.3823653997E+01  2.7522442404E+02  1.1171048909E+02  9.1471557211E+02  8.6503512500E+02 0. 9.
 1000002    2    1    2  103    0  1.3823653997E+01 -2.7522442404E+02 -4.2499092856E+02  1.1133919575E+03  9.9150632100E+02 0. 9.
 1000022    1    3    0    0    0 -2.6223389931E+01  9.3248041834E+01 -2.3677650604E+02  2.8649094896E+02  1.2896157000E+02 0. 9.
       6    2    3    0  101    0  7.4809549385E+01  2.1549578954E+02  3.3480259227E+02  4.4059723079E+02  1.7320000000E+02 0. 9.
      -6    2    3    0    0  103 -6.2409813452E+01 -3.3519407327E+01  1.3684402851E+01  1.8762739236E+02  1.7320000000E+02 0. 9.
 1000024    2    4    0    0    0  2.9901293137E+02 -2.7298853692E+02 -6.0502513688E+02  7.7612300219E+02  2.6903535800E+02 0. 9.
       1    1    4    0  103    0 -2.8518927738E+02 -2.2358871269E+00  1.8003420832E+02  3.3726895527E+02  3.3000000000E-01 0. 9.
      24    2    6    0    0    0  4.3245240058E+01  1.8712816878E+02  3.3883289138E+02  3.9769838650E+02  8.0431188000E+01 0. 9.
       5    1    6    0  101    0  3.1564309327E+01  2.8367620759E+01 -4.0302991070E+00  4.2898844294E+01  4.8000000000E+00 0. 9.
     -24    2    7    0    0    0  1.7995054430E+01  2.1296025246E+01  2.6966564750E+01  8.9295656629E+01  8.0431188000E+01 0. 9.
      -5    1    7    0    0  103 -8.0404867882E+01 -5.4815432573E+01 -1.3282161899E+01  9.8331735732E+01  4.8000000000E+00 0. 9.
 1000022    1    8    0    0    0  2.8238885814E+02 -2.4632519574E+02 -4.5834924723E+02  6.0591640366E+02  1.2896157000E+02 0. 9.
      24    2    8    0    0    0  1.6624073236E+01 -2.6663341179E+01 -1.4667588966E+02  1.7020659853E+02  8.0431188000E+01 0. 9.
      -1    1   10    0    0  104 -2.2461593760E+01  2.6921443289E+01  5.6605580718E+01  6.6585193335E+01  3.3000000000E-01 0. 9.
       2    1   10    0  104    0  6.5706833818E+01  1.6020672549E+02  2.8222731066E+02  3.3111319316E+02  3.3000000000E-01 0. 9.
       3    1   12    0  105    0 -2.1926065206E+01  3.4530111442E+01  3.3637353662E+00  4.1044435034E+01  5.0000000000E-01 0. 9.
      -4    1   12    0    0  105  3.9921119636E+01 -1.3234086196E+01  2.3602829384E+01  4.8251221595E+01  1.5000000000E+00 0. 9.
      -1    1   15    0    0  106 -1.5208485142E+01 -4.3105594208E+01 -1.0908601402E+02  1.1827619214E+02  3.3000000000E-01 0. 9.
       2    1   15    0  106    0  3.1832558378E+01  1.6442253029E+01 -3.7589875637E+01  5.1930406391E+01  3.3000000000E-01 0. 9.
</event>
<event>
    22   272  1.000000E+00  1.102684E+03  7.986213E-03  9.171628E-02
       2   -1    0    0  101    0  0.0000000000E+00  0.0000000000E+00  1.4007382475E+03  1.4007382475E+03  0.0000000000E+00 0. 9.
       1   -1    0    0  102    0  0.0000000000E+00  0.0000000000E+00 -9.0590308520E+02  9.0590308520E+02  0.0000000000E+00 0. 9.
 2000002    2    1    2  102    0 -3.9359496643E+02 -2.7913909672E+02  4.8312896267E+02  1.2037122524E+03  9.9129912700E+02 0. 9.
 2000001    2    1    2  101    0  3.9359496643E+02  2.7913909672E+02  1.1706199594E+01  1.1029290802E+03  9.9170554500E+02 0. 9.
 1000021    2    3    0  102  103 -2.4839687180E+02 -1.6192858332E+02  4.2403779326E+02  1.0079760362E+03  8.6503512500E+02 0. 9.
       2    1    3    0  103    0 -1.4519809463E+02 -1.1721051339E+02  5.9091169410E+01  1.9573621621E+02  3.3000000000E-01 0. 9.
 1000021    2    4    0  101  104  3.9058293892E+02  3.2553433953E+02  9.4637351402E+01  1.0078539746E+03  8.6503512500E+02 0. 9.
       1    1    4    0  104    0  3.0120275085E+00 -4.6395242818E+01 -8.2931151808E+01  9.5075105606E+01  3.3000000000E-01 0. 9.
 1000023    2    5    0    0    0 -2.2091400463E+02  1.3719695339E+02  1.0325930659E+02  3.8806159594E+02  2.6889276000E+02 0. 9.
       2    1    5    0  102    0 -1.6656281744E+02 -3.3269113671E+02  1.6087895069E+02  4.0535010827E+02  3.3000000000E-01 0. 9.
      -2    1    5    0    0  103  1.3907995027E+02  3.3565600004E+01  1.5989953598E+02  2.1456433202E+02  3.3000000000E-01 0. 9.
-1000024    2    7    0    0    0 -1.3431236700E+01 -1.2145589169E+02 -2.3937152298E+01  2.9645394728E+02  2.6903535800E+02 0. 9.
       4    1    7    0  101    0  3.7738862486E+02  4.2313596700E+02 -2.0948988088E+01  5.6736877852E+02  1.5000000000E+00 0. 9.
      -3    1    7    0    0  104  2.6625550760E+01  2.3854264224E+01  1.3952349179E+02  1.4403124882E+02  5.0000000000E-01 0. 9.
 1000022    1    9    0    0    0 -1.1708510969E+02  5.7674242763E+01  9.2371579963E+01  2.0542355393E+02  1.2896157000E+02 0. 9.
      25    2    9    0    0    0 -1.0382889495E+02  7.9522710626E+01  1.0887726630E+01  1.8263804200E+02  1.2701893900E+02 0. 9.
 1000022    1   12    0    0    0  5.4212183077E+01 -1.0519677604E+02  2.9397920551E+01  1.7748421550E+02  1.2896157000E+02 0. 9.
     -24    2   12    0    0    0 -6.7643419777E+01 -1.6259115647E+01 -5.3335072848E+01  1.1896973178E+02  8.0431188000E+01 0. 9.
       5    1   16    0  105    0 -4.9491341958E+01  1.0934817517E+02  5.8892064305E+00  1.2026694930E+02  4.8000000000E+00 0. 9.
      -5    1   16    0    0  105 -5.4337552990E+01 -2.9825464548E+01  4.9985201996E+00  6.2371092701E+01  4.8000000000E+00 0. 9.
      11    1   18    0    0    0 -5.6961610686E+01  1.0274011961E+01  6.4014522458E-01  5.7884282840E+01  5.1000000000E-04 0. 9.
     -12    1   18    0    0    0 -1.0681809091E+01 -2.6533127608E+01 -5.3975218073E+01  6.1085448939E+01  0.0000000000E+00 0. 9.
</event>
<event>
    12   230  1.000000E+00  3.157156E+02  7.873004E-03  1.066422E-01
      -3   -1    0    0    0  101  0.0000000000E+00  0.0000000000E+00  4.6708207976E+02  4.6708207976E+02  0.0000000000E+00 0. 9.
       4   -1    0    0  101    0  0.0000000000E+00  0.0000000000E+00 -3.1000686484E+02  3.1000686484E+02  0.0000000000E+00 0. 9.
 1000023    2    1    2    0    0  3.0607968862E+01  1.6247403863E+02  2.9542453299E+02  4.3233509233E+02  2.6889276000E+02 0. 9.
 1000024    2    1    2    0    0 -3.0607968862E+01 -1.6247403863E+02 -1.3834931808E+02  3.4475385227E+02  2.6903535800E+02 0. 9.
 1000022    1    3    0    0    0  3.9430108562E+01  5.7224811551E+01  2.4207010336E+02  2.8294599131E+02  1.2896157000E+02 0. 9.
      23    2    3    0    0    0 -8.8221397000E+00  1.0524922708E+02  5.3354429629E+01  1.4938910102E+02  9.1187600000E+01 0. 9.
 1000022    1    4    0    0    0 -5.4707326713E+01 -8.8012506616E+00 -6.9028413564E+01  1.5641726895E+02  1.2896157000E+02 0. 9.
      24    2    4    0    0    0  2.4099357851E+01 -1.5367278797E+02 -6.9320904513E+01  1.8833658332E+02  8.0431188000E+01 0. 9.
      12    1    6    0    0    0  2.8369480720E+01  1.4579475062E+00  4.3598395381E+00  2.8739541542E+01  0.0000000000E+00 0. 9.
     -12    1    6    0    0    0 -3.7191620420E+01  1.0379127957E+02  4.8994590091E+01  1.2064955948E+02  0.0000000000E+00 0. 9.
      -3    1    8    0    0  102  2.5878102614E+01 -4.9246333430E+00 -1.0157551495E+01  2.8237458469E+01  5.0000000000E-01 0. 9.
       4    1    8    0  102    0 -1.7787447628E+00 -1.4874815462E+02 -5.9163353018E+01  1.6009912485E+02  1.5000000000E+00 0. 9.
</event>
<event>
    16   271  1.000000E+00  1.054962E+03  7.982152E-03  9.217265E-02
       2   -1    0    0  101    0  0.0000000000E+00  0.0000000000E+00  1.5641765989E+03  1.5641765989E+03  0.0000000000E+00 0. 9.
       2   -1    0    0  102    0  0.0000000000E+00  0.0000000000E+00 -1.4460286381E+03  1.4460286381E+03  0.0000000000E+00 0. 9.
 1000002    2    1    2  102    0  1.6903905366E+02 -3.1825304033E+02  1.1317681486E+03  1.5472049399E+03  9.9150632100E+02 0. 9.
 1000002    2    1    2  101    0 -1.6903905366E+02  3.1825304033E+02 -1.0136201879E+03  1.4630002971E+03  9.9150632100E+02 0. 9.
 1000024    2    3    0    0    0  1.8623300821E+02 -3.0112067989E+02  1.3016949476E+03  1.3755530371E+03  2.6903535800E+02 0. 9.
       1    1    3    0  102    0 -1.7193954553E+01 -1.7132360437E+01 -1.6992679900E+02  1.7165190289E+02  3.3000000000E-01 0. 9.
 1000024    2    4    0    0    0 -3.7359041164E+02  5.4046092023E+02 -8.8538669819E+02  1.1348821221E+03  2.6903535800E+02 0. 9.
       1    1    4    0  101    0  2.0455135797E+02 -2.2220787990E+02 -1.2823348971E+02  3.2811817494E+02  3.3000000000E-01 0. 9.
 1000022    1    5    0    0    0  6.0739492718E+01 -1.1907205072E+02  8.0212529373E+02  8.2334896163E+02  1.2896157000E+02 0. 9.
      24    2    5    0    0    0  1.2549351550E+02 -1.8204862916E+02  4.9956965390E+02  5.5220407542E+02  8.0431188000E+01 0. 9.
 1000022    1    7    0    0    0 -9.8547402836E+01  1.2360921467E+02 -2.6312387985E+02  3.3295058379E+02  1.2896157000E+02 0. 9.
      24    2    7    0    0    0 -2.7504300880E+02  4.1685170556E+02 -6.2226281833E+02  8.0193153835E+02  8.0431188000E+01 0. 9.
      -1    1   10    0    0  103 -6.6864501945E+00 -3.9792929492E+01  7.0350039983E+01  8.1101312439E+01  3.3000000000E-01 0. 9.
       2    1   10    0  103    0  1.3217996569E+02 -1.4225569967E+02  4.2921961392E+02  4.7110276299E+02  3.3000000000E-01 0. 9.
     -13    1   12    0    0    0 -8.1888250492E+01  8.0498747198E+01 -1.0662269952E+02  1.5669762310E+02  1.0566000000E-01 0. 9.
      14    1   12    0    0    0 -1.9315475831E+02  3.3635295836E+02 -5.1564011882E+02  6.4523391525E+02  0.0000000000E+00 0. 9.
</event>
<event>
    16   259  1.000000E+00  1.218964E+03  7.995428E-03  9.069868E-02
       2   -1    0    0  101    0  0.0000000000E+00  0.0000000000E+00  1.9476995043E+03  1.9476995043E+03  0.0000000000E+00 0. 9.
      21   -1    0    0  102  101  0.0000000000E+00  0.0000000000E+00 -7.6640487472E+02  7.6640487472E+02  0.0000000000E+00 0. 9.
 2000002    2    1    2  103    0 -6.0002122826E+02  5.1026227094E+02  7.2010177069E+02  1.4565759777E+03  9.9129912700E+02 0. 9.
 1000021    2    1    2  102  103  6.0002122826E+02 -5.1026227094E+02  4.6119285887E+02  1.2575284013E+03  8.6503512500E+02 0. 9.
 1000021    2    3    0  103  104 -4.0657976830E+02  3.8635489211E+02  6.3917084792E+02  1.2130137472E+03  8.6503512500E+02 0. 9.
       2    1    3    0  104    0 -1.9344145996E+02  1.2390737883E+02  8.0930922778E+01  2.4356223049E+02  3.3000000000E-01 0. 9.
 1000022    1    4    0    0    0  3.7106069777E+02  2.8566740216E+01 -2.2340687450E+01  3.9450258925E+02  1.2896157000E+02 0. 9.
       3    1    4    0  102    0  2.3226200929E+02 -5.7555358813E+02  5.2108653246E+02  8.1039434726E+02  5.0000000000E-01 0. 9.
      -3    1    4    0    0  103 -3.3014788044E+00  3.6724576972E+01 -3.7552986143E+01  5.2631464775E+01  5.0000000000E-01 0. 9.
 1000023    2    5    0    0    0 -2.2377949143E+02  4.3848341221E+02  8.9129085008E+01  5.6797207127E+02  2.6889276000E+02 0. 9.
       4    1    5    0  103    0 -1.0334426111E+02 -4.5281988544E+01  2.7095289158E+01  1.1604697103E+02  1.5000000000E+00 0. 9.
      -4    1    5    0    0  104 -7.9456015764E+01 -6.8465315514E+00  5.2294647375E+02  5.2899470493E+02  1.5000000000E+00 0. 9.
 1000022    1   10    0    0    0 -7.6674259796E+01  1.4570072871E+02  4.3350101223E+01  2.1358361893E+02  1.2896157000E+02 0. 9.
      25    2   10    0    0    0 -1.4710523163E+02  2.9278268350E+02  4.5778983785E+01  3.5438845234E+02  1.2701893900E+02 0. 9.
      21    1   14    0  105  106 -5.4834953798E+01  1.8909504013E+01  2.9137257420E+01  6.4910871739E+01  0.0000000000E+00 0. 9.
      21    1   14    0  106  105 -9.2270277833E+01  2.7387317949E+02  1.6641726365E+01  2.8947758060E+02  0.0000000000E+00 0. 9.
</event>
<event>
    24   259  1.000000E+00  1.017528E+03  7.978840E-03  9.254870E-02
       2   -1    0    0  101    0  0.0000000000E+00  0.0000000000E+00  8.8053063826E+02  8.8053063826E+02  0.0000000000E+00 0. 9.
      21   -1    0    0  102  101  0.0000000000E+00  0.0000000000E+00 -1.3079084043E+03  1.3079084043E+03  0.0000000000E+00 0. 9.
 2000002    2    1    2  103    0  3.1162474559E+02  2.6976549779E+02 -5.7669891071E+02  1.2186627912E+03  9.9129912700E+02 0. 9.
 1000021    2    1    2  102  103 -3.1162474559E+02 -2.6976549779E+02  1.4932114472E+02  9.6977625131E+02  8.6503512500E+02 0. 9.
 1000021    2    3    0  103  104  3.6902619181E+02  1.7000783729E+02 -4.8631045746E+02  1.0723183406E+03  8.6503512500E+02 0. 9.
       2    1    3    0  104    0 -5.7401446211E+01  9.9757660493E+01 -9.0388453250E+01  1.4634445065E+02  3.3000000000E-01 0. 9.
 1000024    2    4    0    0    0 -1.8108710494E+01 -1.1353016950E+02  1.7521797682E+02  3.4102549470E+02  2.6903535800E+02 0. 9.
      -6    2    4    0    0  103 -2.5301657518E+01 -2.3578397006E+02  1.1512993417E+02  3.1541622683E+02  1.7320000000E+02 0. 9.
       5    1    4    0  102    0 -2.6821437758E+02  7.9548641765E+01 -1.4102676626E+02  3.1333452978E+02  4.8000000000E+00 0. 9.
 1000023    2    5    0    0    0 -5.5314125447E+01 -1.8195090041E+02 -1.6114897241E+02  3.6665800186E+02  2.6889276000E+02 0. 9.
       1    1    5    0  103    0 -3.0354082436E+01 -7.5921580258E+00  1.3752185680E+01  3.4179565459E+01  3.3000000000E-01 0. 9.
      -1    1    5    0    0  104  4.5469439969E+02  3.5955089573E+02 -3.3891367073E+02  6.7148077325E+02  3.3000000000E-01 0. 9.
 1000022    1    7    0    0    0  1.9436481989E+01 -7.9728787517E+01  1.3467563799E+01  1.5345005117E+02  1.2896157000E+02 0. 9.
      24    2    7    0    0    0 -3.7545192484E+01 -3.3801381978E+01  1.6175041302E+02  1.8757544354E+02  8.0431188000E+01 0. 9.
     -24    2    8    0    0    0 -2.8113393882E+01 -2.3492315967E+02  5.6097364989E+01  2.5611588047E+02  8.0431188000E+01 0. 9.
      -5    1    8    0    0  103  2.8117363638E+00 -8.6081038784E-01  5.9032569176E+01  5.9300346369E+01  4.8000000000E+00 0. 9.
 1000022    1   10    0    0    0 -7.2988293237E+00 -1.6520197864E+02 -1.5736148314E+02  2.6218064301E+02  1.2896157000E+02 0. 9.
      23    2   10    0    0    0 -4.8015296123E+01 -1.6748921774E+01 -3.7874892681E+00  1.0447735884E+02  9.1187600000E+01 0. 9.
      -3    1   14    0    0  105 -1.4440025055E+00  5.0023017028E+00  1.1993539052E+02  1.2004939011E+02  5.0000000000E-01 0. 9.
       4    1   14    0  105    0 -3.6101189978E+01 -3.8803683681E+01  4.1815022499E+01  6.7526053429E+01  1.5000000000E+00 0. 9.
       3    1   15    0  106    0 -3.9947025313E+01 -2.1639509324E+02  3.0203757404E+01  2.2211510118E+02  5.0000000000E-01 0. 9.
      -4    1   15    0    0  106  1.1833631431E+01 -1.8528066431E+01  2.5893607585E+01  3.4000779290E+01  1.5000000000E+00 0. 9.
      13    1   18    0    0    0 -2.9548953064E+01 -1.0154401456E+01  4.3342637634E+01  5.3430776686E+01  1.0566000000E-01 0. 9.
     -13    1   18    0    0    0 -1.8466343059E+01 -6.5945203175E+00 -4.7130126902E+01  5.1046582159E+01  1.0566000000E-01 0. 9.
</event>
<event>
    30   276  1.000000E+00  1.026059E+03  7.979605E-03  9.246152E-02
       1   -1    0    0  101    0  0.0000000000E+00  0.0000000000E+00  2.2554550865E+03  2.2554550865E+03  0.0000000000E+00 0. 9.
      -2   -1    0    0    0  101  0.0000000000E+00  0.0000000000E+00 -4.7040497171E+02  4.7040497171E+02  0.0000000000E+00 0. 9.
 2000001    2    1    2  102    0  1.2488959670E+02  2.3220222558E+02  1.0122790398E+03  1.4414243051E+03  9.9170554500E+02 0. 9.
-1000002    2    1    2    0  102 -1.2488959670E+02 -2.3220222558E+02  7.7277107495E+02  1.2844357531E+03  9.9150632100E+02 0. 9.
 1000021    2    3    0  102  103  2.1042823541E+02  1.4282739950E+02  8.7102936707E+02  1.2536577021E+03  8.6503512500E+02 0. 9.
       1    1    3    0  103    0 -8.5538638706E+01  8.9374826075E+01  1.4124967272E+02  1.8776660297E+02  3.3000000000E-01 0. 9.
 1000021    2    4    0  104  102  1.3666052769E+00 -2.2791276300E+02  6.3198056532E+02  1.0952768132E+03  8.6503512500E+02 0. 9.
      -2    1    4    0    0  104 -1.2625620198E+02 -4.2894625753E+00  1.4079050963E+02  1.8915893986E+02  3.3000000000E-01 0. 9.
-1000024    2    5    0    0    0  2.3115009114E+02  7.2971561980E+01  1.7789127259E+02  4.0346070714E+02  2.6903535800E+02 0. 9.
       6    2    5    0  102    0  1.5303813224E+02 -2.3177568367E+01  5.7550436460E+02  6.2061371501E+02  1.7320000000E+02 0. 9.
      -5    1    5    0    0  103 -1.7375998797E+02  9.3033405890E+01  1.1763372988E+02  2.2958327996E+02  4.8000000000E+00 0. 9.
 1000024    2    7    0    0    0 -5.0181597902E+01  1.8098598784E+02  1.8542534626E+02  3.7687757091E+02  2.6903535800E+02 0. 9.
      -6    2    7    0    0  102  3.8477414499E+00 -4.5862108854E+02  4.1561969310E+02  6.4271772752E+02  1.7320000000E+02 0. 9.
       5    1    7    0  104    0  4.7700461729E+01  4.9722337699E+01  3.0935525959E+01  7.5681514796E+01  4.8000000000E+00 0. 9.
 1000022    1    9    0    0    0  1.7961553269E+02  6.9927871885E+01  1.9899605917E+02  3.0558495537E+02  1.2896157000E+02 0. 9.
     -24    2    9    0    0    0  5.1534558453E+01  3.0436900950E+00 -2.1104786585E+01  9.7875751769E+01  8.0431188000E+01 0. 9.
      24    2   10    0    0    0  1.1222827306E+02  5.9163371588E+00  2.0831752894E+02  2.4999111421E+02  8.0431188000E+01 0. 9.
       5    1   10    0  102    0  4.0809859181E+01 -2.9093905525E+01  3.6718683566E+02  3.7062260080E+02  4.8000000000E+00 0. 9.
 1000022    1   12    0    0    0  4.2930551033E+01  4.6314983286E+01  6.0687857822E+01  1.5589166916E+02  1.2896157000E+02 0. 9.
      24    2   12    0    0    0 -9.3112148935E+01  1.3467100456E+02  1.2473748844E+02  2.2098590175E+02  8.0431188000E+01 0. 9.
     -24    2   13    0    0    0  5.0303601284E+01 -2.7592056315E+02  3.1349368181E+02  4.2826402372E+02  8.0431188000E+01 0. 9.
      -5    1   13    0    0  102 -4.6455859834E+01 -1.8270052539E+02  1.0212601129E+02  2.1445370380E+02  4.8000000000E+00 0. 9.
       1    1   16    0  105    0  2.2578583463E+00 -1.9943805547E+01  2.1039736386E+01  2.9079764634E+01  3.3000000000E-01 0. 9.
      -2    1   16    0    0  105  4.9276700107E+01  2.2987495642E+01 -4.2144522971E+01  6.8795987134E+01  3.3000000000E-01 0. 9.
      -3    1   17    0    0  106  7.2737166909E+01 -3.4010441240E+01  1.0272286437E+02  1.3038267687E+02  5.0000000000E-01 0. 9.
       4    1   17    0  106    0  3.9491106147E+01  3.9926778399E+01  1.0559466457E+02  1.1960843734E+02  1.5000000000E+00 0. 9.
      -3    1   20    0    0  107 -2.5146099337E+01  6.9947827817E+01  1.3677802598E+01  7.5580137683E+01  5.0000000000E-01 0. 9.
       2    1   20    0  107    0 -6.7966049597E+01  6.4723176738E+01  1.1105968584E+02  1.4540576407E+02  3.3000000000E-01 0. 9.
       3    1   21    0  108    0  2.0460549488E+01 -1.3246523670E+02  9.1579991900E+01  1.6233551039E+02  5.0000000000E-01 0. 9.
      -4    1   21    0    0  108  2.9843051797E+01 -1.4345532646E+02  2.2191368991E+02  2.6592851332E+02  1.5000000000E+00 0. 9.
</event>
<event>
    12   230  1.000000E+00  2.798317E+02  7.862253E-03  1.083432E-01
      -1   -1    0    0    0  101  0.0000000000E+00  0.0000000000E+00  1.2290822997E+02  1.2290822997E+02  0.0000000000E+00 0. 9.
       2   -1    0    0  101    0  0.0000000000E+00  0.0000000000E+00 -8.0330267246E+02  8.0330267246E+02  0.0000000000E+00 0. 9.
 1000023    2    1    2    0    0 -7.6077365384E+01 -1.3280240499E+01 -1.2948716671E+02  3.0827645553E+02  2.6889276000E+02 0. 9.
 1000024    2    1    2    0    0  7.6077365384E+01  1.3280240499E+01 -5.5090727578E+02  6.1793444691E+02  2.6903535800E+02 0. 9.
 1000022    1    3    0    0    0 -7.8212785253E+01 -1.5922897058E+01 -8.3611530869E+01  1.7318415938E+02  1.2896157000E+02 0. 9.
      25    2    3    0    0    0  2.1354198689E+00  2.6426565586E+00 -4.5875635838E+01  1.3509229615E+02  1.2701893900E+02 0. 9.
 1000022    1    4    0    0    0  1.0624327158E+02  5.1554308754E+01 -4.3396113779E+02  4.6786625777E+02  1.2896157000E+02 0. 9.
      24    2    4    0    0    0 -3.0165906201E+01 -3.8274068255E+01 -1.1694613799E+02  1.5006818914E+02  8.0431188000E+01 0. 9.
      22    1    6    0    0    0 -3.4410610268E+00 -3.4372900258E+01  3.3006835848E+01  4.7778534781E+01  0.0000000000E+00 0. 9.
      22    1    6    0    0    0  5.5764808957E+00  3.7015556817E+01 -7.8882471686E+01  8.7313761372E+01  0.0000000000E+00 0. 9.
      -1    1    8    0    0  102 -1.4647053787E+01 -6.2419032682E+00 -1.1315698544E+02  1.1427208669E+02  3.3000000000E-01 0. 9.
       2    1    8    0  102    0 -1.5518852414E+01 -3.2032164987E+01 -3.7891525505E+00  3.5796102456E+01  3.3000000000E-01 0. 9.
</event>
<event>
    24   259  1.000000E+00  1.585484E+03  8.019696E-03  8.813452E-02
       1   -1    0    0  101    0  0.0000000000E+00  0.0000000000E+00  1.4287000752E+03  1.4287000752E+03  0.0000000000E+00 0. 9.
      21   -1    0    0  102  101  0.0000000000E+00  0.0000000000E+00 -1.7894448506E+03  1.7894448506E+03  0.0000000000E+00 0. 9.
 2000001    2    1    2  103    0  4.2106831143E+02 -1.2126733299E+03  2.6989261366E+01  1.6223696977E+03  9.9170554500E+02 0. 9.
 1000021    2    1    2  102  103 -4.2106831143E+02  1.2126733299E+03 -3.8773403672E+02  1.5957752281E+03  8.6503512500E+02 0. 9.
 1000021    2    3    0  103  104  3.9963986038E+02 -9.2102107754E+02 -2.4292114691E+01  1.3254688671E+03  8.6503512500E+02 0. 9.
       1    1    3    0  104    0  2.1428451045E+01 -2.9165225233E+02  5.1281376058E+01  2.9690083064E+02  3.3000000000E-01 0. 9.
-1000024    2    4    0    0    0  7.2463089325E+01  1.7971939160E+02 -2.6562980538E+02  4.2484017747E+02  2.6903535800E+02 0. 9.
       4    1    4    0  102    0 -4.9484189829E+02  1.0429850575E+03 -1.2088932470E+02  1.1607337392E+03  1.5000000000E+00 0. 9.
      -3    1    4    0    0  103  1.3104975339E+00 -1.0031119228E+01 -1.2149066433E+00  1.0201311431E+01  5.0000000000E-01 0. 9.
 1000024    2    5    0    0    0  4.3979117369E+02 -3.9796785290E+02  1.4277276105E+02  6.6675240798E+02  2.6903535800E+02 0. 9.
      -6    2    5    0    0  104 -5.4155736811E+01 -5.0102755988E+02 -2.3752881786E+02  5.8342063634E+02  1.7320000000E+02 0. 9.
       5    1    5    0  103    0  1.4004423506E+01 -2.2025664758E+01  7.0463942123E+01  7.5295822761E+01  4.8000000000E+00 0. 9.
 1000022    1    7    0    0    0  8.4786067313E+01  2.4481798761E+01 -1.2285970767E+02  1.9878035614E+02  1.2896157000E+02 0. 9.
     -24    2    7    0    0    0 -1.2322977988E+01  1.5523759284E+02 -1.4277009771E+02  2.2605982133E+02  8.0431188000E+01 0. 9.
 1000022    1   10    0    0    0  2.8974440860E+02 -1.7953796244E+02  2.3426497617E+01  3.6519253771E+02  1.2896157000E+02 0. 9.
      24    2   10    0    0    0  1.5004676509E+02 -2.1842989046E+02  1.1934626343E+02  3.0155987027E+02  8.0431188000E+01 0. 9.
     -24    2   11    0    0    0 -7.3423694552E+01 -3.7834913211E+02 -2.3622034888E+02  4.5913868702E+02  8.0431188000E+01 0. 9.
      -5    1   11    0    0  104  1.9267957741E+01 -1.2267842777E+02 -1.3084689863E+00  1.2428194932E+02  4.8000000000E+00 0. 9.
       3    1   14    0  105    0  8.9177577032E+00  9.3790496598E+00  7.9853998890E+00  1.5215439079E+01  5.0000000000E-01 0. 9.
      -4    1   14    0    0  105 -2.1240735691E+01  1.4585854318E+02 -1.5075549760E+02  2.1084438225E+02  1.5000000000E+00 0. 9.
     -15    1   16    0    0    0  4.9346700614E+01 -9.4320364997E+01  8.9254350023E+01  1.3892776843E+02  1.7770000000E+00 0. 9.
      16    1   16    0    0    0  1.0070006448E+02 -1.2410952546E+02  3.0091913409E+01  1.6263210184E+02  0.0000000000E+00 0. 9.
       1    1   17    0  106    0 -7.0967573103E+01 -3.0823189611E+02 -1.5635335413E+02  3.5283109055E+02  3.3000000000E-01 0. 9.
      -2    1   17    0    0  106 -2.4561214492E+00 -7.0117236003E+01 -7.9866994746E+01  1.0630759647E+02  3.3000000000E-01 0. 9.
</event>
<event>
    12   230  1.000000E+00  5.488464E+02  7.922661E-03  9.948383E-02
       1   -1    0    0  101    0  0.0000000000E+00  0.0000000000E+00  1.0565141567E+03  1.0565141567E+03  0.0000000000E+00 0. 9.
      -2   -1    0    0    0  101  0.0000000000E+00  0.0000000000E+00 -2.8515356586E+02  2.8515356586E+02  0.0000000000E+00 0. 9.
 1000023    2    1    2    0    0  2.6359132875E+02  3.9926218246E+02  3.9303267211E+02  6.7503235230E+02  2.6889276000E+02 0. 9.
-1000024    2    1    2    0    0 -2.6359132875E+02 -3.9926218246E+02  3.7832791874E+02  6.6663537026E+02  2.6903535800E+02 0. 9.
 1000022    1    3    0    0    0  1.0518801008E+02  2.1776721427E+02  2.2867071408E+02  3.5694321549E+02  1.2896157000E+02 0. 9.
      25    2    3    0    0    0  1.5840331867E+02  1.8149496819E+02  1.6436195803E+02  3.1808913681E+02  1.2701893900E+02 0. 9.
 1000022    1    4    0    0    0 -4.8278761040E+01 -2.0735660023E+02  1.8648461692E+02  3.1102282442E+02  1.2896157000E+02 0. 9.
     -24    2    4    0    0    0 -2.1531256771E+02 -1.9190558223E+02  1.9184330182E+02  3.5561254584E+02  8.0431188000E+01 0. 9.
       5    1    6    0  102    0  1.0426360490E+02  1.3310588804E+02  1.7632725399E+02  2.4434078095E+02  4.8000000000E+00 0. 9.
      -5    1    6    0    0  102  5.4139713768E+01  4.8389080147E+01 -1.1965295953E+01  7.3748355857E+01  4.8000000000E+00 0. 9.
      11    1    8    0    0    0 -2.8937396909E+00 -2.1388346176E+00 -7.2479480022E+00  8.0920388916E+00  5.1000000000E-04 0. 9.
     -12    1    8    0    0    0 -2.1241882801E+02 -1.8976674761E+02  1.9909124982E+02  3.4752050695E+02  0.0000000000E+00 0. 9.
</event>
<event>
    21   258  1.000000E+00  1.064865E+03  7.983009E-03  9.207589E-02
       1   -1    0    0  101    0  0.0000000000E+00  0.0000000000E+00  1.8305931949E+03  1.8305931949E+03  0.0000000000E+00 0. 9.
      21   -1    0    0  102  101  0.0000000000E+00  0.0000000000E+00 -6.7215548684E+02  6.7215548684E+02  0.0000000000E+00 0. 9.
 1000001    2    1    2  103    0  2.3300998397E+02  4.5952694865E+02  9.6325488337E+02  1.4771557939E+03  9.9431916400E+02 0. 9.
 1000021    2    1    2  102  103 -2.3300998397E+02 -4.5952694865E+02  1.9518282472E+02  1.0255928879E+03  8.6503512500E+02 0. 9.
-1000024    2    3    0    0    0  5.7752569348E+02  1.4714914987E+02  5.9262834673E+02  8.8248352967E+02  2.6903535800E+02 0. 9.
       2    1    3    0  103    0 -3.4451570950E+02  3.1237779877E+02  3.7062653664E+02  5.9467226421E+02  3.3000000000E-01 0. 9.
-1000024    2    4    0    0    0 -1.6004996171E+01 -2.7621416337E+01  5.6373756884E+01  2.7672572497E+02  2.6903535800E+02 0. 9.
       6    2    4    0  102    0 -7.9808637772E+01 -5.3179841763E+02  1.2430372158E+02  5.7847094211E+02  1.7320000000E+02 0. 9.
      -5    1    4    0    0  103 -1.3719635003E+02  9.9892885326E+01  1.4505346256E+01  1.7039622082E+02  4.8000000000E+00 0. 9.
 1000022    1    5    0    0    0  4.6873963375E+02  9.9612965240E+01  3.7565166195E+02  6.2240247810E+02  1.2896157000E+02 0. 9.
     -24    2    5    0    0    0  1.0878605973E+02  4.7536184632E+01  2.1697668478E+02  2.6008105157E+02  8.0431188000E+01 0. 9.
 1000022    1    7    0    0    0  4.4707361902E+01  4.5071730765E+01  9.9619360024E+00  1.4408516866E+02  1.2896157000E+02 0. 9.
     -24    2    7    0    0    0 -6.0712358073E+01 -7.2693147102E+01  4.6411820881E+01  1.3264055631E+02  8.0431188000E+01 0. 9.
      24    2    8    0    0    0 -6.2498081386E+01 -4.7972979060E+02  1.5635337780E+02  5.1474482699E+02  8.0431188000E+01 0. 9.
       5    1    8    0  102    0 -1.7310556386E+01 -5.2068627036E+01 -3.2049656215E+01  6.3726115112E+01  4.8000000000E+00 0. 9.
       3    1   11    0  104    0  6.2440481946E+01  6.3485644376E+01  1.0395367849E+02  1.3687899071E+02  5.0000000000E-01 0. 9.
      -4    1   11    0    0  104  4.6345577785E+01 -1.5949459744E+01  1.1302300630E+02  1.2320206085E+02  1.5000000000E+00 0. 9.
       3    1   13    0  105    0  1.8048108205E+01 -2.9036491276E+01  1.2917036214E+01  3.6550675232E+01  5.0000000000E-01 0. 9.
      -4    1   13    0    0  105 -7.8760466277E+01 -4.3656655826E+01  3.3494784667E+01  9.6089881080E+01  1.5000000000E+00 0. 9.
      -1    1   14    0    0  106 -6.5463622843E+01 -4.7018019981E+02  1.3888647075E+02  4.9461547374E+02  3.3000000000E-01 0. 9.
       2    1   14    0  106    0  2.9655414564E+00 -9.5495907885E+00  1.7466907052E+01  2.0129353251E+01  3.3000000000E-01 0. 9.
</event>
<event>
    20   259  1.000000E+00  1.058287E+03  7.982441E-03  9.214004E-02
       2   -1    0    0  101    0  0.0000000000E+00  0.0000000000E+00  1.4654531462E+03  1.4654531462E+03  0.0000000000E+00 0. 9.
      21   -1    0    0  102  101  0.0000000000E+00  0.0000000000E+00 -8.7037633296E+02  8.7037633296E+02  0.0000000000E+00 0. 9.
 2000002    2    1    2  103    0  9.1860265133E+01  4.9603694682E+02  7.2254477291E+02  1.3263618922E+03  9.9129912700E+02 0. 9.
 1000021    2    1    2  102  103 -9.1860265133E+01 -4.9603694682E+02 -1.2746795969E+02  1.0094675870E+03  8.6503512500E+02 0. 9.
 1000021    2    3    0  103  104  1.4468005340E+02  4.8646930726E+02  5.4617933201E+02  1.1420080275E+03  8.6503512500E+02 0. 9.
       2    1    3    0  104    0 -5.2819788263E+01  9.5676395594E+00  1.7636544089E+02  1.8435386462E+02  3.3000000000E-01 0. 9.
 1000024    2    4    0    0    0 -3.7730929922E+01 -5.7552822217E+02 -1.5525272127E+02  6.5508761926E+02  2.6903535800E+02 0. 9.
      -2    1    4    0    0  103 -1.1898497135E+02  1.9039188061E+02  2.4714190605E+01  2.2587029846E+02  3.3000000000E-01 0. 9.
       1    1    4    0  102    0  6.4855636137E+01 -1.1090060526E+02  3.0705709778E+00  1.2850966926E+02  3.3000000000E-01 0. 9.
 1000024    2    5    0    0    0  6.1653536854E+01 -8.0352860126E+01  1.9526471337E+01  2.8813026164E+02  2.6903535800E+02 0. 9.
      -4    1    5    0    0  104  1.5966643052E+02  2.5108424703E+02  9.2479777096E+01  3.1159497318E+02  1.5000000000E+00 0. 9.
       3    1    5    0  103    0 -7.6639913975E+01  3.1573792036E+02  4.3417308358E+02  5.4228279271E+02  5.0000000000E-01 0. 9.
 1000022    1    7    0    0    0 -6.1186579358E+00 -5.1409159282E+02 -1.3725934123E+02  5.4753887266E+02  1.2896157000E+02 0. 9.
      24    2    7    0    0    0 -3.1612271986E+01 -6.1436629352E+01 -1.7993380042E+01  1.0754874660E+02  8.0431188000E+01 0. 9.
 1000022    1   10    0    0    0  3.4422310359E+01 -1.2609339028E+02 -1.8297599268E+01  1.8452730746E+02  1.2896157000E+02 0. 9.
      24    2   10    0    0    0  2.7231226495E+01  4.5740530153E+01  3.7824070605E+01  1.0360295418E+02  8.0431188000E+01 0. 9.
      -1    1   14    0    0  105  1.0375584782E+00 -6.3334521723E+01 -3.3158008822E+01  7.1497556731E+01  3.3000000000E-01 0. 9.
       2    1   14    0  105    0 -3.2649830464E+01  1.8978923705E+00  1.5164628780E+01  3.6051189867E+01  3.3000000000E-01 0. 9.
      -1    1   16    0    0  106  3.1572532503E+01  1.2672125251E+01  5.6069936430E+01  6.5584710400E+01  3.3000000000E-01 0. 9.
       2    1   16    0  106    0 -4.3413060078E+00  3.3068404902E+01 -1.8245865825E+01  3.8018243782E+01  3.3000000000E-01 0. 9.
</event>
<event>
    12   230  1.000000E+00  2.908747E+02  7.865699E-03  1.077917E-01
       1   -1    0    0  101    0  0.0000000000E+00  0.0000000000E+00  1.6008970054E+03  1.6008970054E+03  0.0000000000E+00 0. 9.
      -2   -1    0    0    0  101  0.0000000000E+00  0.0000000000E+00 -5.3224768901E+01  5.3224768901E+01  0.0000000000E+00 0. 9.
 1000023    2    1    2    0    0 -6.8162680694E+01 -8.7294152780E+01  8.4302312513E+02  8.9177223888E+02  2.6889276000E+02 0. 9.
-1000024    2    1    2    0    0  6.8162680694E+01  8.7294152780E+01  7.0464911134E+02  7.6234953539E+02  2.6903535800E+02 0. 9.
 1000022    1    3    0    0    0 -7.1620175628E+01 -1.0974817074E+02  4.2074919385E+02  4.5916781377E+02  1.2896157000E+02 0. 9.
      23    2    3    0    0    0  3.4574949341E+00  2.2454017956E+01  4.2227393128E+02  4.3260442511E+02  9.1187600000E+01 0. 9.
 1000022    1    4    0    0    0  6.5432006675E+01  1.3013727713E+02  4.0804902073E+02  4.5205325820E+02  1.2896157000E+02 0. 9.
     -24    2    4    0    0    0  2.7306740192E+00 -4.2843124354E+01  2.9660009061E+02  3.1029627719E+02  8.0431188000E+01 0. 9.
       5    1    6    0  102    0  5.4115208656E+00  1.9667280928E+01  4.2541738626E+02  4.2593318611E+02  4.8000000000E+00 0. 9.
      -5    1    6    0    0  102 -1.9540259315E+00  2.7867370281E+00 -3.1434549802E+00  6.6712390017E+00  4.8000000000E+00 0. 9.
       1    1    8    0  103    0  3.6842233933E+01 -2.0842376936E+00  1.4602723987E+02  1.5061792035E+02  3.3000000000E-01 0. 9.
      -2    1    8    0    0  103 -3.4111559914E+01 -4.0758886661E+01  1.5057285074E+02  1.5967835683E+02  3.3000000000E-01 0. 9.
</event>
<event>
    12   226  1.000000E+00  3.244500E+02  7.875440E-03  1.062649E-01
       2   -1    0    0  101    0  0.0000000000E+00  0.0000000000E+00  4.8763699378E+02  4.8763699378E+02  0.0000000000E+00 0. 9.
      -2   -1    0    0    0  101  0.0000000000E+00  0.0000000000E+00 -3.2953717306E+02  3.2953717306E+02  0.0000000000E+00 0. 9.
 1000024    2    1    2    0    0  8.1585886970E+01 -1.6196141110E+02  3.1901262177E+02  4.5501300239E+02  2.6903535800E+02 0. 9.
-1000024    2    1    2    0    0 -8.1585886970E+01  1.6196141110E+02 -1.6091280105E+02  3.6216116445E+02  2.6903535800E+02 0. 9.
 1000022    1    3    0    0    0  1.7286388762E+01 -2.1645450705E+01  6.4884786739E+01  1.4699818659E+02  1.2896157000E+02 0. 9.
      24    2    3    0    0    0  6.4299498208E+01 -1.4031596040E+02  2.5412783504E+02  3.0801481580E+02  8.0431188000E+01 0. 9.
 1000022    1    4    0    0    0 -7.0027336187E+01  1.1452854988E+02 -1.8767948244E+02  2.6433934860E+02  1.2896157000E+02 0. 9.
     -24    2    4    0    0    0 -1.1558550782E+01  4.7432861218E+01  2.6766681395E+01  9.7821815847E+01  8.0431188000E+01 0. 9.
      -3    1    6    0    0  102  4.1565363986E+01 -1.3861506221E+01  4.6901540770E+01  6.4185865770E+01  5.0000000000E-01 0. 9.
       4    1    6    0  102    0  2.2734134222E+01 -1.2645445418E+02  2.0722629427E+02  2.4382895003E+02  1.5000000000E+00 0. 9.
      15    1    8    0    0    0  2.6996469097E+01  2.2107797236E+01  3.6661681141E+01  5.0643860787E+01  1.7770000000E+00 0. 9.
     -16    1    8    0    0    0 -3.8555019880E+01  2.5325063982E+01 -9.8949997457E+00  4.7177955059E+01  0.0000000000E+00 0. 9.
</event>
<event>
    12   230  1.000000E+00  2.826789E+02  7.863154E-03  1.081984E-01
      -1   -1    0    0    0  101  0.0000000000E+00  0.0000000000E+00  4.8419587870E+01  4.8419587870E+01  0.0000000000E+00 0. 9.
       2   -1    0    0  101    0  0.0000000000E+00  0.0000000000E+00 -1.6788630361E+03  1.6788630361E+03  0.0000000000E+00 0. 9.
 1000023    2    1    2    0    0  3.6901894761E+00 -8.6902566410E+01 -7.0240033812E+02  7.5712299193E+02  2.6889276000E+02 0. 9.
 1000024    2    1    2    0    0 -3.6901894761E+00  8.6902566410E+01 -9.2804311009E+02  9.7015963201E+02  2.6903535800E+02 0. 9.
 1000022    1    3    0    0    0  1.7793061685E+01 -2.1320622616E+01 -4.2094162467E+02  4.4112821255E+02  1.2896157000E+02 0. 9.
      25    2    3    0    0    0 -1.4102872209E+01 -6.5581943794E+01 -2.8145871345E+02  3.1599477938E+02  1.2701893900E+02 0. 9.
 1000022    1    4    0    0    0 -8.3299945080E+01  3.6027859913E+01 -4.7906523594E+02  5.0435252985E+02  1.2896157000E+02 0. 9.
      24    2    4    0    0    0  7.9609755603E+01  5.0874706497E+01 -4.4897787414E+02  4.6580710216E+02  8.0431188000E+01 0. 9.
       5    1    6    0  102    0 -2.5619723778E+01 -7.8949694629E+01 -2.8542166804E+02  2.9728436406E+02  4.8000000000E+00 0. 9.
      -5    1    6    0    0  102  1.1516851570E+01  1.3367750835E+01  3.9629545902E+00  1.8710415323E+01  4.8000000000E+00 0. 9.
     -11    1    8    0    0    0  7.7995595763E+01  6.8094966927E+01 -4.1447848458E+02  4.2721499465E+02  5.1000000000E-04 0. 9.
      12    1    8    0    0    0  1.6141598407E+00 -1.7220260430E+01 -3.4499389567E+01  3.8592107506E+01  0.0000000000E+00 0. 9.
</event>
<event>
    12   230  1.000000E+00  3.215994E+02  7.874653E-03  1.063866E-01
      -1   -1    0    0    0  101  0.0000000000E+00  0.0000000000E+00  8.2928527597E+01  8.2928527597E+01  0.0000000000E+00 0. 9.
       2   -1    0    0  101    0  0.0000000000E+00  0.0000000000E+00 -1.3425333061E+03  1.3425333061E+03  0.0000000000E+00 0. 9.
 1000023    2    1    2    0    0 -1.3899552649E+02 -1.0846531809E+02 -4.3973972511E+02  5.4475574695E+02  2.6889276000E+02 0. 9.
 1000024    2    1    2    0    0  1.3899552649E+02  1.0846531809E+02 -8.1986505344E+02  8.8070608680E+02  2.6903535800E+02 0. 9.
 1000022    1    3    0    0    0 -5.5119961667E+01 -1.1248091591E+01 -1.8233767052E+02  2.3031031754E+02  1.2896157000E+02 0. 9.
      25    2    3    0    0    0 -8.3875564824E+01 -9.7217226499E+01 -2.5740205460E+02  3.1444542941E+02  1.2701893900E+02 0. 9.
 1000022    1    4    0    0    0  1.1107935751E+02  1.4962849301E+02 -5.9964195471E+02  6.4103733898E+02  1.2896157000E+02 0. 9.
      24    2    4    0    0    0  2.7916168979E+01 -4.1163174923E+01 -2.2022309873E+02  2.3966874781E+02  8.0431188000E+01 0. 9.
       5    1    6    0  102    0 -1.1251372462E+02 -9.5988377217E+01 -1.8833512593E+02  2.3951256010E+02  4.8000000000E+00 0. 9.
      -5    1    6    0    0  102  2.8638159797E+01 -1.2288492820E+00 -6.9066928670E+01  7.4932869310E+01  4.8000000000E+00 0. 9.
      -3    1    8    0    0  103 -1.0432371592E+01 -1.5420952562E+01 -4.6480031523E+00  1.9196199839E+01  5.0000000000E-01 0. 9.
       4    1    8    0  103    0  3.8348540571E+01 -2.5742222361E+01 -2.1557509558E+02  2.2047254797E+02  1.5000000000E+00 0. 9.
</event>
<event>
    22   272  1.000000E+00  1.014685E+03  7.978583E-03  9.257795E-02
       1   -1    0    0  101    0  0.0000000000E+00  0.0000000000E+00  7.6574334481E+02  7.6574334481E+02  0.0000000000E+00 0. 9.
       1   -1    0    0  102    0  0.0000000000E+00  0.0000000000E+00 -2.1719366106E+03  2.1719366106E+03  0.0000000000E+00 0. 9.
 2000001    2    1    2  101    0 -1.8158555893E+02  1.1459455628E+02 -1.6096710841E+03  1.9027942911E+03  9.9170554500E+02 0. 9.
 2000001    2    1    2  102    0  1.8158555893E+02 -1.1459455628E+02  2.0347781829E+02  1.0348856642E+03  9.9170554500E+02 0. 9.
 1000021    2    3    0  101  103 -2.3947577749E+02  2.9546278381E+01 -1.5239626481E+03  1.7688893552E+03  8.6503512500E+02 0. 9.
       1    1    3    0  103    0  5.7890218560E+01  8.5048277899E+01 -8.5708435939E+01  1.3390493594E+02  3.3000000000E-01 0. 9.
 1000021    2    4    0  102  104  2.7914348016E+02 -1.1392539370E+02  1.9765209830E+02  9.3715110697E+02  8.6503512500E+02 0. 9.
       1    1    4    0  104    0 -9.7557921228E+01 -6.6916257619E-01  5.8257199972E+00  9.7734557278E+01  3.3000000000E-01 0. 9.
 1000023    2    5    0    0    0 -3.5522423909E+02 -1.6850808106E+02 -1.2862496696E+03  1.3716124680E+03  2.6889276000E+02 0. 9.
       3    1    5    0  101    0  5.3439906385E+01 -3.2984538814E+01 -1.0839948734E+02  1.2527770053E+02  5.0000000000E-01 0. 9.
      -3    1    5    0    0  103  6.2308555212E+01  2.3103889825E+02 -1.2931349122E+02  2.7199918671E+02  5.0000000000E-01 0. 9.
 1000023    2    7    0    0    0 -8.3919419891E+01 -7.6090789208E+01  2.6263289054E+02  3.9257053992E+02  2.6889276000E+02 0. 9.
       5    1    7    0  102    0  3.5737038878E+02  1.2419987865E+02 -4.0296659039E+01  3.8050764166E+02  4.8000000000E+00 0. 9.
      -5    1    7    0    0  104  5.6925112742E+00 -1.6203448315E+02 -2.4684133210E+01  1.6407292539E+02  4.8000000000E+00 0. 9.
 1000022    1    9    0    0    0 -1.1744061480E+02 -1.7353282876E+01 -5.7641121875E+02  6.0247357956E+02  1.2896157000E+02 0. 9.
      23    2    9    0    0    0 -2.3778362429E+02 -1.5115479818E+02 -7.0983845081E+02  7.6913888839E+02  9.1187600000E+01 0. 9.
 1000022    1   12    0    0    0 -7.4369488557E+01  1.3937786677E+01  8.0913220390E+01  1.7000917180E+02  1.2896157000E+02 0. 9.
      23    2   12    0    0    0 -9.5499313339E+00 -9.0028575885E+01  1.8171967015E+02  2.2256136812E+02  9.1187600000E+01 0. 9.
       4    1   16    0  105    0 -3.0578166555E+01 -2.6999873372E+01 -4.0316760564E+01  5.7373413829E+01  1.5000000000E+00 0. 9.
      -4    1   16    0    0  105 -2.0720545773E+02 -1.2415492481E+02 -6.6952169025E+02  7.1176547456E+02  1.5000000000E+00 0. 9.
      15    1   18    0    0    0 -4.4513812152E+01 -7.7384580588E+01  1.4491429644E+02  1.7021505170E+02  1.7770000000E+00 0. 9.
     -15    1   18    0    0    0  3.4963880818E+01 -1.2643995297E+01  3.6805373714E+01  5.2346316414E+01  1.7770000000E+00 0. 9.
</event>
<event>
    12   226  1.000000E+00  4.849646E+02  7.911495E-03  1.010010E-01
      -2   -1    0    0    0  101  0.0000000000E+00  0.0000000000E+00  2.5644825298E+02  2.5644825298E+02  0.0000000000E+00 0. 9.
       2   -1    0    0  101    0  0.0000000000E+00  0.0000000000E+00 -1.7312408795E+03  1.7312408795E+03  0.0000000000E+00 0. 9.
-1000024    2    1    2    0    0 -4.0218984647E+02  3.2465167742E+01 -5.5862466579E+01  4.8817138255E+02  2.6903535800E+02 0. 9.
 1000024    2    1    2    0    0  4.0218984647E+02 -3.2465167742E+01 -1.4189301599E+03  1.4995177499E+03  2.6903535800E+02 0. 9.
 1000022    1    3    0    0    0 -3.5565868341E+02 -1.8178523760E+01 -3.5602951109E+01  3.8042373017E+02  1.2896157000E+02 0. 9.
     -24    2    3    0    0    0 -4.6531163058E+01  5.0643691502E+01 -2.0259515470E+01  1.0774765239E+02  8.0431188000E+01 0. 9.
 1000022    1    4    0    0    0  3.3583949935E+02 -1.0917314857E+00 -8.9899988867E+02  9.6830844650E+02  1.2896157000E+02 0. 9.
      24    2    4    0    0    0  6.6350347117E+01 -3.1373436256E+01 -5.1993027124E+02  5.3120930340E+02  8.0431188000E+01 0. 9.
       3    1    6    0  102    0 -5.7986438339E+01  6.2470932347E+01 -2.7689418744E+01  8.9621416692E+01  5.0000000000E-01 0. 9.
      -4    1    6    0    0  102  1.1455275281E+01 -1.1827240845E+01  7.4299032736E+00  1.8126235694E+01  1.5000000000E+00 0. 9.
      -3    1    8    0    0  103  7.4853140581E+00 -1.1875846863E+01 -3.5050581511E+02  3.5078717493E+02  5.0000000000E-01 0. 9.
       4    1    8    0  103    0  5.8865033059E+01 -1.9497589393E+01 -1.6942445613E+02  1.8042212847E+02  1.5000000000E+00 0. 9.
</event>
<event>
    12   230  1.000000E+00  2.907450E+02  7.865659E-03  1.077980E-01
      -1   -1    0    0    0  101  0.0000000000E+00  0.0000000000E+00  2.5345292965E+02  2.5345292965E+02  0.0000000000E+00 0. 9.
       2   -1    0    0  101    0  0.0000000000E+00  0.0000000000E+00 -5.3229942133E+02  5.3229942133E+02  0.0000000000E+00 0. 9.
 1000023    2    1    2    0    0  6.6444975401E+01 -8.8181966405E+01 -3.7948505387E+02  4.7802010047E+02  2.6889276000E+02 0. 9.
 1000024    2    1    2    0    0 -6.6444975401E+01  8.8181966405E+01  1.0063856220E+02  3.0773225052E+02  2.6903535800E+02 0. 9.
 1000022    1    3    0    0    0  4.5808210775E+01 -7.2106537698E+01 -2.5503748063E+02  2.9828333513E+02  1.2896157000E+02 0. 9.
      25    2    3    0    0    0  2.0636764626E+01 -1.6075428707E+01 -1.2444757324E+02  1.7973676533E+02  1.2701893900E+02 0. 9.
 1000022    1    4    0    0    0 -1.2137943869E+02  7.0796855714E+01  5.3195638083E+01  1.9800511449E+02  1.2896157000E+02 0. 9.
      24    2    4    0    0    0  5.4934463287E+01  1.7385110690E+01  4.7442924114E+01  1.0972713603E+02  8.0431188000E+01 0. 9.
       5    1    6    0  102    0 -2.7966536293E+01  3.4804247174E+01 -9.1432643770E+01  1.0186476879E+02  4.8000000000E+00 0. 9.
      -5    1    6    0    0  102  4.8603300919E+01 -5.0879675881E+01 -3.3014929472E+01  7.7871996546E+01  4.8000000000E+00 0. 9.
      -1    1    8    0    0  103  2.9221260690E+01  4.7758106222E+01  1.3923160841E+01  5.7694731944E+01  3.3000000000E-01 0. 9.
       2    1    8    0  103    0  2.5713202597E+01 -3.0372995532E+01  3.3519763273E+01  5.2032404089E+01  3.3000000000E-01 0. 9.
</event>
<event>
    12   230  1.000000E+00  2.831314E+02  7.863296E-03  1.081756E-01
      -4   -1    0    0    0  101  0.0000000000E+00  0.0000000000E+00  1.3477164913E+02  1.3477164913E+02  0.0000000000E+00 0. 9.
       3   -1    0    0  101    0  0.0000000000E+00  0.0000000000E+00 -8.0961146287E+02  8.0961146287E+02  0.0000000000E+00 0. 9.
-1000024    2    1    2    0    0  2.9875103614E+01 -8.3241797882E+01 -9.4259058629E+01  2.9847363823E+02  2.6903535800E+02 0. 9.
 1000023    2    1    2    0    0 -2.9875103614E+01  8.3241797882E+01 -5.8058075511E+02  6.4590947378E+02  2.6889276000E+02 0. 9.
 1000022    1    3    0    0    0  3.3897226203E+01  2.0303876427E+01  3.4236875773E+00  1.3492248706E+02  1.2896157000E+02 0. 9.
     -24    2    3    0    0    0 -4.0221225890E+00 -1.0354567431E+02 -9.7682746207E+01  1.6355115117E+02  8.0431188000E+01 0. 9.
 1000022    1    4    0    0    0 -1.3004229715E+01  1.1242886025E+02 -2.6504575942E+02  3.1573675702E+02  1.2896157000E+02 0. 9.
      23    2    4    0    0    0 -1.6870873899E+01 -2.9187062365E+01 -3.1553499569E+02  3.3017271676E+02  9.1187600000E+01 0. 9.
       3    1    6    0  102    0  3.3916021244E+01 -2.0322479021E+01 -3.3225225640E+01  5.1647509809E+01  5.0000000000E-01 0. 9.
      -4    1    6    0    0  102 -3.7938143833E+01 -8.3223195287E+01 -6.4457520566E+01  1.1190364136E+02  1.5000000000E+00 0. 9.
       5    1    8    0  103    0 -1.5748712538E+01 -6.1064723598E+00 -4.3456170582E+00  1.8089647286E+01  4.8000000000E+00 0. 9.
      -5    1    8    0    0  103 -1.1221613602E+00 -2.3080590005E+01 -3.1118937863E+02  3.1208306947E+02  4.8000000000E+00 0. 9.
</event>
<event>
    12   230  1.000000E+00  2.779689E+02  7.861658E-03  1.084389E-01
      -2   -1    0    0    0  101  0.0000000000E+00  0.0000000000E+00  1.4951331091E+02  1.4951331091E+02  0.0000000000E+00 0. 9.
       1   -1    0    0  101    0  0.0000000000E+00  0.0000000000E+00 -5.1969272618E+02  5.1969272618E+02  0.0000000000E+00 0. 9.
-1000024    2    1    2    0    0 -3.8834620482E+01  5.8454582607E+01 -1.6012122906E+02  3.2084871486E+02  2.6903535800E+02 0. 9.
 1000023    2    1    2    0    0  3.8834620482E+01 -5.8454582607E+01 -2.1005818622E+02  3.4835732223E+02  2.6889276000E+02 0. 9.
 1000022    1    3    0    0    0 -1.0015365682E+02  4.8401756966E+01 -1.3176597713E+02  2.1532961784E+02  1.2896157000E+02 0. 9.
     -24    2    3    0    0    0  6.1319036339E+01  1.0052825642E+01 -2.8355251929E+01  1.0551909702E+02  8.0431188000E+01 0. 9.
 1000022    1    4    0    0    0  8.1439954130E+01  1.5013228085E+01 -1.1830894661E+02  1.9361290383E+02  1.2896157000E+02 0. 9.
      23    2    4    0    0    0 -4.2605333648E+01 -7.3467810692E+01 -9.1749239614E+01  1.5474441840E+02  9.1187600000E+01 0. 9.
      11    1    6    0    0    0  7.6806167352E+01  6.3529617481E+00 -3.8991345951E+01  8.6370553579E+01  5.1000000000E-04 0. 9.
     -12    1    6    0    0    0 -1.5487131013E+01  3.6998638935E+00  1.0636094022E+01  1.9148543441E+01  0.0000000000E+00 0. 9.
      15    1    8    0    0    0 -5.9258654802E+01 -7.9317495604E+01 -9.4395188040E+01  1.3680812305E+02  1.7770000000E+00 0. 9.
     -15    1    8    0    0    0  1.6653321153E+01  5.8496849111E+00  2.6459484256E+00  1.7936295355E+01  1.7770000000E+00 0. 9.
</event>
<event>
    12   230  1.000000E+00  3.845113E+02  7.890635E-03  1.039751E-01
       2   -1    0    0  101    0  0.0000000000E+00  0.0000000000E+00  7.5137859293E+02  7.5137859293E+02  0.0000000000E+00 0. 9.
      -1   -1    0    0    0  101  0.0000000000E+00  0.0000000000E+00 -1.9940237188E+02  1.9940237188E+02  0.0000000000E+00 0. 9.
 1000024    2    1    2    0    0  2.0416831316E+02 -1.8390916425E+02  3.3064182375E+02  5.0716005389E+02  2.6903535800E+02 0. 9.
 1000023    2    1    2    0    0 -2.0416831316E+02  1.8390916425E+02  2.2133439730E+02  4.4362091092E+02  2.6889276000E+02 0. 9.
 1000022    1    3    0    0    0  1.5614365043E+01 -7.2302487594E+01  1.5721468673E+02  2.1637699131E+02  1.2896157000E+02 0. 9.
      24    2    3    0    0    0  1.8855394811E+02 -1.1160667666E+02  1.7342713702E+02  2.9078306257E+02  8.0431188000E+01 0. 9.
 1000022    1    4    0    0    0 -1.3118331808E+02  3.4693690698E+01  6.5654426363E+01  1.9837919587E+02  1.2896157000E+02 0. 9.
      23    2    4    0    0    0 -7.2984995082E+01  1.4921547355E+02  1.5567997094E+02  2.4524171505E+02  9.1187600000E+01 0. 9.
      -3    1    6    0    0  102  1.7763481762E+02 -8.4086420507E+01  1.7189338881E+02  2.6109814565E+02  5.0000000000E-01 0. 9.
       4    1    6    0  102    0  1.0919130494E+01 -2.7520256148E+01  1.5337482028E+00  2.9684916923E+01  1.5000000000E+00 0. 9.
       5    1    8    0  103    0 -8.5251951881E+01  8.0409273869E+01  7.9193703496E+01  1.4152112668E+02  4.8000000000E+00 0. 9.
      -5    1    8    0    0  103  1.2266956799E+01  6.8806199682E+01  7.6486267442E+01  1.0372058837E+02  4.8000000000E+00 0. 9.
</event>
<event>
    19   271  1.000000E+00  1.062289E+03  7.982787E-03  9.210095E-02
       2   -1    0    0  101    0  0.0000000000E+00  0.0000000000E+00  8.4882250700E+02  8.4882250700E+02  0.0000000000E+00 0. 9.
       2   -1    0    0  102    0  0.0000000000E+00  0.0000000000E+00 -1.3401032237E+03  1.3401032237E+03  0.0000000000E+00 0. 9.
 1000002    2    1    2  101    0 -3.7932996366E+02 -3.8491466896E+01 -3.4327412179E+02  1.1163757081E+03  9.9150632100E+02 0. 9.
 1000002    2    1    2  102    0  3.7932996366E+02  3.8491466896E+01 -1.4800659495E+02  1.0725500226E+03  9.9150632100E+02 0. 9.
 1000024    2    3    0    0    0 -2.5548205898E+01 -3.3910615158E+02  1.3072454251E+02  4.5289581885E+02  2.6903535800E+02 0. 9.
       1    1    3    0  101    0 -3.5378175776E+02  3.0061468469E+02 -4.7399866430E+02  6.6347988924E+02  3.3000000000E-01 0. 9.
 1000021    2    4    0  102  103  4.4682974982E+02  1.2379268745E+01 -1.8522935805E+02  9.9116383821E+02  8.6503512500E+02 0. 9.
       2    1    4    0  103    0 -6.7499786161E+01  2.6112198151E+01  3.7222763099E+01  8.1386184434E+01  3.3000000000E-01 0. 9.
 1000022    1    5    0    0    0 -5.1339877083E+01 -3.1181014764E+02  1.2660256296E+02  3.6403385369E+02  1.2896157000E+02 0. 9.
      24    2    5    0    0    0  2.5791671185E+01 -2.7296003945E+01  4.1219795508E+00  8.8861965162E+01  8.0431188000E+01 0. 9.
 1000023    2    7    0    0    0  3.0344064895E+02  2.2410229620E+02  1.0904597853E+02  4.7591218561E+02  2.6889276000E+02 0. 9.
       5    1    7    0  102    0  2.2412780712E+02 -2.4617865186E+02 -2.1117512295E+02  3.9427804289E+02  4.8000000000E+00 0. 9.
      -5    1    7    0    0  103 -8.0738706259E+01  3.4455624405E+01 -8.3100213627E+01  1.2097360971E+02  4.8000000000E+00 0. 9.
      -1    1   10    0    0  104  4.1257109019E+01 -4.3628709068E+01 -1.1936869672E+01  6.1222635170E+01  3.3000000000E-01 0. 9.
       2    1   10    0  104    0 -1.5465437835E+01  1.6332705123E+01  1.6058849222E+01  2.7639329992E+01  3.3000000000E-01 0. 9.
 1000022    1   11    0    0    0  1.0906394556E+02  1.2294806095E+02  6.5391073577E+01  2.1890237311E+02  1.2896157000E+02 0. 9.
      25    2   11    0    0    0  1.9437670340E+02  1.0115423525E+02  4.3654904953E+01  2.5700981250E+02  1.2701893900E+02 0. 9.
       5    1   17    0  105    0  7.8633473176E+01 -2.4718792942E+00  6.2300152045E+01  1.0046731924E+02  4.8000000000E+00 0. 9.
      -5    1   17    0    0  105  1.1574323022E+02  1.0362611454E+02 -1.8645247092E+01  1.5654249326E+02  4.8000000000E+00 0. 9.
</event>
<event>
    20   259  1.000000E+00  9.796582E+02  7.975365E-03  9.294680E-02
      21   -1    0    0  101  102  0.0000000000E+00  0.0000000000E+00  3.6143929265E+02  3.6143929265E+02  0.0000000000E+00 0. 9.
       2   -1    0    0  102    0  0.0000000000E+00  0.0000000000E+00 -2.6457612069E+03  2.6457612069E+03  0.0000000000E+00 0. 9.
 1000021    2    1    2  101  103  1.2038902984E+02 -2.8241250471E+02 -1.0538230942E+03  1.3975261081E+03  8.6503512500E+02 0. 9.
 2000002    2    1    2  103    0 -1.2038902984E+02  2.8241250471E+02 -1.2304988200E+03  1.6096743915E+03  9.9129912700E+02 0. 9.
 1000024    2    3    0    0    0  3.8035813453E+02 -3.0980707452E+02 -4.9537199905E+02  7.4727918158E+02  2.6903535800E+02 0. 9.
      -2    1    3    0    0  103 -1.0989763888E+02  7.2568306954E+01 -9.8871154490E+01  1.6467927707E+02  3.3000000000E-01 0. 9.
       1    1    3    0  101    0 -1.5007146581E+02 -4.5173737138E+01 -4.5957994069E+02  4.8556764942E+02  3.3000000000E-01 0. 9.
 1000021    2    4    0  103  104 -1.7134986171E+01  3.2243804662E+02 -1.1373946729E+03  1.4649956693E+03  8.6503512500E+02 0. 9.
       2    1    4    0  104    0 -1.0325404367E+02 -4.0025541915E+01 -9.3104147150E+01  1.4467872220E+02  3.3000000000E-01 0. 9.
 1000022    1    5    0    0    0  1.1530925074E+02 -5.1493074205E+01 -1.4943023954E+02  2.3432507980E+02  1.2896157000E+02 0. 9.
      24    2    5    0    0    0  2.6504888379E+02 -2.5831400032E+02 -3.4594175951E+02  5.1295410178E+02  8.0431188000E+01 0. 9.
 1000023    2    8    0    0    0 -1.8136440987E+02  2.5498119811E+02 -1.4868677605E+02  4.3854251141E+02  2.6889276000E+02 0. 9.
       4    1    8    0  103    0  1.3167397741E+02 -5.9589306906E+01 -5.0469879861E+02  5.2498766571E+02  1.5000000000E+00 0. 9.
      -4    1    8    0    0  104  3.2555446293E+01  1.2704615542E+02 -4.8400909820E+02  5.0146549216E+02  1.5000000000E+00 0. 9.
     -15    1   11    0    0    0  1.6040471049E+02 -2.0595104888E+02 -2.2447054487E+02  3.4429012319E+02  1.7770000000E+00 0. 9.
      16    1   11    0    0    0  1.0464417330E+02 -5.2362951441E+01 -1.2147121464E+02  1.6866397859E+02  0.0000000000E+00 0. 9.
 1000022    1   12    0    0    0 -1.1330721959E+02  2.0629413858E+02 -3.5296838773E+01  2.7068939948E+02  1.2896157000E+02 0. 9.
      23    2   12    0    0    0 -6.8057190288E+01  4.8687059527E+01 -1.1338993728E+02  1.6785311193E+02  9.1187600000E+01 0. 9.
       2    1   18    0  105    0 -4.4384479232E+01  3.4899563825E+01 -5.7197835194E+00  5.6751972436E+01  3.3000000000E-01 0. 9.
      -2    1   18    0    0  105 -2.3672711055E+01  1.3787495702E+01 -1.0767015376E+02  1.1110113950E+02  3.3000000000E-01 0. 9.
</event>
<event>
     9   259  1.000000E+00  1.029655E+03  7.979926E-03  9.242504E-02
      -2   -1    0    0    0  101  0.0000000000E+00  0.0000000000E+00  1.3902690221E+03  1.3902690221E+03  0.0000000000E+00 0. 9.
      21   -1    0    0  101  102  0.0000000000E+00  0.0000000000E+00 -9.6224987020E+02  9.6224987020E+02  0.0000000000E+00 0. 9.
-2000002    2    1    2    0  103 -4.0953107558E+02 -1.6429722840E+02  7.6167274366E+02  1.3257181483E+03  9.9129912700E+02 0. 9.
 1000021    2    1    2  103  102  4.0953107558E+02  1.6429722840E+02 -3.3365359175E+02  1.0268007440E+03  8.6503512500E+02 0. 9.
 1000022    1    3    0    0    0 -6.9612389168E+02 -1.8427566367E+02  7.3528879698E+02  1.0372206584E+03  1.2896157000E+02 0. 9.
      -2    1    3    0    0  103  2.8659281610E+02  1.9978435270E+01  2.6383946680E+01  2.8849748987E+02  3.3000000000E-01 0. 9.
 1000022    1    4    0    0    0  2.6293886133E+01  1.8999796128E+01 -4.8808799028E+02  5.0587877351E+02  1.2896157000E+02 0. 9.
       2    1    4    0  103    0  4.1951319251E+02  9.2361663212E+01  1.1178003196E+02  4.4386583555E+02  3.3000000000E-01 0. 9.
      -2    1    4    0    0  102 -3.6276003069E+01  5.2935769058E+01  4.2654366570E+01  7.7056134940E+01  3.3000000000E-01 0. 9.
</event>
<event>
    34   273  1.000000E+00  1.166489E+03  7.991381E-03  9.114252E-02
       1   -1    0    0  101    0  0.0000000000E+00  0.0000000000E+00  1.0541342907E+03  1.0541342907E+03  0.0000000000E+00 0. 9.
       2   -1    0    0  102    0  0.0000000000E+00  0.0000000000E+00 -1.3483365002E+03  1.3483365002E+03  0.0000000000E+00 0. 9.
 1000001    2    1    2  102    0  3.5763046303E+02 -4.9711730540E+02  1.0084645363E+02  1.1721202031E+03  9.9431916400E+02 0. 9.
 2000002    2    1    2  101    0 -3.5763046303E+02  4.9711730540E+02 -3.9504866316E+02  1.2303505878E+03  9.9129912700E+02 0. 9.
 1000021    2    3    0  102  103  2.0652576918E+02 -3.4686757516E+02  8.7926525929E+01  9.5863801796E+02  8.6503512500E+02 0. 9.
       1    1    3    0  103    0  1.5110469385E+02 -1.5024973025E+02  1.2919927697E+01  2.1348218515E+02  3.3000000000E-01 0. 9.
 1000021    2    4    0  101  104 -4.1166736974E+02  4.9444785778E+02 -2.9678248391E+02  1.1181745470E+03  8.6503512500E+02 0. 9.
       2    1    4    0  104    0  5.4036906705E+01  2.6694476229E+00 -9.8266179258E+01  1.1217604077E+02  3.3000000000E-01 0. 9.
 1000023    2    5    0    0    0 -1.6905558166E+02 -1.3497785379E+02  7.6325138343E+01  3.5345106285E+02  2.6889276000E+02 0. 9.
       6    2    5    0  102    0  1.8882903860E+02 -1.5151462954E+02  1.2120203628E+02  3.2140513746E+02  1.7320000000E+02 0. 9.
      -6    2    5    0    0  103  1.8675231224E+02 -6.0375091823E+01 -1.0960064869E+02  2.8378181766E+02  1.7320000000E+02 0. 9.
-1000024    2    7    0    0    0 -3.2714347043E+02  6.2664221816E+02 -1.1230887435E+02  7.6465458015E+02  2.6903535800E+02 0. 9.
       6    2    7    0  101    0 -6.0718702325E+01 -1.7609732348E+01 -1.1637775833E+02  2.1803413980E+02  1.7320000000E+02 0. 9.
      -5    1    7    0    0  104 -2.3805196982E+01 -1.1458462803E+02 -6.8095851225E+01  1.3548582708E+02  4.8000000000E+00 0. 9.
 1000022    1    9    0    0    0 -4.6692585761E+01 -3.2082213990E+01  2.7811834223E+01  1.4357594046E+02  1.2896157000E+02 0. 9.
      25    2    9    0    0    0 -1.2236299590E+02 -1.0289563980E+02  4.8513304120E+01  2.0987512239E+02  1.2701893900E+02 0. 9.
      24    2   10    0    0    0  1.8401772535E+02 -9.6432657004E+01  1.3963588888E+02  2.6292420590E+02  8.0431188000E+01 0. 9.
       5    1   10    0  102    0  4.8113132484E+00 -5.5081972541E+01 -1.8433852602E+01  5.8480931558E+01  4.8000000000E+00 0. 9.
     -24    2   11    0    0    0  7.4216029241E+01 -9.1661087095E+01 -7.8040477371E+01  1.6269377983E+02  8.0431188000E+01 0. 9.
      -5    1   11    0    0  103  1.1253628300E+02  3.1285995272E+01 -3.1560171318E+01  1.2108803783E+02  4.8000000000E+00 0. 9.
 1000022    1   12    0    0    0 -1.5630425797E+02  3.4722955305E+02  1.9672851437E+01  4.0251396397E+02  1.2896157000E+02 0. 9.
     -24    2   12    0    0    0 -1.7083921246E+02  2.7941266511E+02 -1.3198172579E+02  3.6214061617E+02  8.0431188000E+01 0. 9.
      24    2   13    0    0    0  2.9475072244E+01  4.4433973332E+00 -8.2690879559E+01  1.1914479103E+02  8.0431188000E+01 0. 9.
       5    1   13    0  101    0 -9.0193774569E+01 -2.2053129681E+01 -3.3686878769E+01  9.8889348774E+01  4.8000000000E+00 0. 9.
       5    1   16    0  105    0 -1.2672343390E+02 -8.8085305486E+01  8.0429759475E+01  1.7409720260E+02  4.8000000000E+00 0. 9.
      -5    1   16    0    0  105  4.3604380021E+00 -1.4810334313E+01 -3.1916455356E+01  3.5777919790E+01  4.8000000000E+00 0. 9.
      -3    1   17    0    0  106 -4.4895040022E+00 -1.4594379462E+01  1.5954302138E+00  1.5360564951E+01  5.0000000000E-01 0. 9.
       2    1   17    0  106    0  1.8850722936E+02 -8.1838277542E+01  1.3804045866E+02  2.4756364095E+02  3.3000000000E-01 0. 9.
       1    1   19    0  107    0  6.2637310763E+01 -1.0139094945E+02 -8.4652925902E+01  1.4618407606E+02  3.3000000000E-01 0. 9.
      -2    1   19    0    0  107  1.1578718478E+01  9.7298623525E+00  6.6124485313E+00  1.6509703770E+01  3.3000000000E-01 0. 9.
      11    1   22    0    0    0 -8.9617100393E-01  4.1744973665E+01 -3.4401435393E+01  5.4100875280E+01  5.1000000000E-04 0. 9.
     -12    1   22    0    0    0 -1.6994304146E+02  2.3766769144E+02 -9.7580290397E+01  3.0803974089E+02  0.0000000000E+00 0. 9.
     -13    1   23    0    0    0 -2.5747532874E+01  1.2945810172E+01 -3.7431465692E+01  4.7240398369E+01  1.0566000000E-01 0. 9.
      14    1   23    0    0    0  5.5222605118E+01 -8.5024128390E+00 -4.5259413867E+01  7.1904392659E+01  0.0000000000E+00 0. 9.
</event>
<event>
    30   243  1.000000E+00  1.339272E+03  8.004100E-03  8.976364E-02
       2   -1    0    0  101    0  0.0000000000E+00  0.0000000000E+00  9.0348114269E+02  9.0348114269E+02  0.0000000000E+00 0. 9.
      -2   -1    0    0    0  102  0.0000000000E+00  0.0000000000E+00 -2.0524727420E+03  2.0524727420E+03  0.0000000000E+00 0. 9.
 1000021    2    1    2  101  103 -2.0305968440E+02  1.0020626643E+03 -8.4194533449E+02  1.5819356916E+03  8.6503512500E+02 0. 9.
 1000021    2    1    2  103  102  2.0305968440E+02 -1.0020626643E+03 -3.0704626479E+02  1.3740181930E+03  8.6503512500E+02 0. 9.
 1000023    2    3    0    0    0 -4.7886218724E-01  7.5040065006E+02 -7.2633771043E+02  1.0784114015E+03  2.6889276000E+02 0. 9.
       6    2    3    0  101    0 -3.7839386644E+01  1.4158570990E+02 -5.0962011329E+01  2.3253752176E+02  1.7320000000E+02 0. 9.
      -6    2    3    0    0  103 -1.6474143557E+02  1.1007630435E+02 -6.4645612734E+01  2.7098676835E+02  1.7320000000E+02 0. 9.
 1000024    2    4    0    0    0  2.1845813100E+02 -3.9413030567E+02  1.6881099737E+02  5.5130738208E+02  2.6903535800E+02 0. 9.
      -6    2    4    0    0  102 -1.4870784692E+01 -3.9152878630E+02 -2.0195560379E+02  4.7360345928E+02  1.7320000000E+02 0. 9.
       5    1    4    0  103    0 -5.2766191336E-01 -2.1640357233E+02 -2.7390165837E+02  3.4910735169E+02  4.8000000000E+00 0. 9.
 1000022    1    5    0    0    0 -2.9058042692E+01  2.5240063708E+02 -3.2116101782E+02  4.2933196637E+02  1.2896157000E+02 0. 9.
      23    2    5    0    0    0  2.8579180504E+01  4.9800001297E+02 -4.0517669261E+02  6.4907943513E+02  9.1187600000E+01 0. 9.
      24    2    6    0    0    0 -1.4048874675E+00  6.6965080383E+00 -4.5418626358E+01  9.2622052191E+01  8.0431188000E+01 0. 9.
       5    1    6    0  101    0 -3.6434499176E+01  1.3488920186E+02 -5.5433849712E+00  1.3991546957E+02  4.8000000000E+00 0. 9.
     -24    2    7    0    0    0 -1.0370047923E+02  1.4160138570E+02 -5.9041655794E+01  2.0189065096E+02  8.0431188000E+01 0. 9.
      -5    1    7    0    0  103 -6.1040956339E+01 -3.1525081342E+01 -5.6039569407E+00  6.9096117386E+01  4.8000000000E+00 0. 9.
 1000022    1    8    0    0    0  2.2228351212E+02 -3.2623727320E+02  1.6195737432E+02  4.4576002043E+02  1.2896157000E+02 0. 9.
      24    2    8    0    0    0 -3.8253811153E+00 -6.7893032479E+01  6.8536230531E+00  1.0554736165E+02  8.0431188000E+01 0. 9.
     -24    2    9    0    0    0 -3.4217581294E+01 -3.5549903902E+02 -2.2165149908E+02  4.2795907826E+02  8.0431188000E+01 0. 9.
      -5    1    9    0    0  102  1.9346796602E+01 -3.6029747280E+01  1.9695895289E+01  4.5644381024E+01  4.8000000000E+00 0. 9.
       2    1   12    0  104    0  3.3100135725E+01  4.1413528629E+02 -3.7549935093E+02  5.6000314801E+02  3.3000000000E-01 0. 9.
      -2    1   12    0    0  104 -4.5209552206E+00  8.3864726681E+01 -2.9677341688E+01  8.9076287120E+01  3.3000000000E-01 0. 9.
      -3    1   13    0    0  105 -1.4068804215E+00  2.7550206173E+01 -6.0732557380E+01  6.6705971986E+01  5.0000000000E-01 0. 9.
       4    1   13    0  105    0  1.9929540251E-03 -2.0853698134E+01  1.5313931022E+01  2.5916080205E+01  1.5000000000E+00 0. 9.
      11    1   15    0    0    0 -1.0652147860E+02  8.4763035249E+01 -4.3126630775E+01  1.4279882293E+02  5.1000000000E-04 0. 9.
     -12    1   15    0    0    0  2.8209993692E+00  5.6838350446E+01 -1.5915025018E+01  5.9091828033E+01  0.0000000000E+00 0. 9.
      -1    1   18    0    0  106 -2.1469194444E+01 -1.3043332418E+01  3.3657051450E+01  4.1999533842E+01  3.3000000000E-01 0. 9.
       2    1   18    0  106    0  1.7643813329E+01 -5.4849700062E+01 -2.6803428397E+01  6.3547827811E+01  3.3000000000E-01 0. 9.
      11    1   19    0    0    0 -1.9827734628E+00 -1.1872468559E+02 -3.2250930053E+01  1.2304310159E+02  5.1000000000E-04 0. 9.
     -12    1   19    0    0    0 -3.2234807831E+01 -2.3677435343E+02 -1.8940056903E+02  3.0491597667E+02  0.0000000000E+00 0. 9.
</event>
<event>
    12   230  1.000000E+00  2.704769E+02  7.859228E-03  1.088324E-01
       2   -1    0    0  101    0  0.0000000000E+00  0.0000000000E+00  9.5144990028E+02  9.5144990028E+02  0.0000000000E+00 0. 9.
      -1   -1    0    0    0  101  0.0000000000E+00  0.0000000000E+00 -9.5423297266E+01  9.5423297266E+01  0.0000000000E+00 0. 9.
 1000024    2    1    2    0    0 -2.6696857528E+01 -1.0167083379E+01  6.5878037909E+02  7.1217111954E+02  2.6903535800E+02 0. 9.
 1000023    2    1    2    0    0  2.6696857528E+01  1.0167083379E+01  1.9724622393E+02  3.3470207800E+02  2.6889276000E+02 0. 9.
 1000022    1    3    0    0    0  1.7706050673E+00  4.7661572360E+01  2.0506635699E+02  2.4689685666E+02  1.2896157000E+02 0. 9.
      24    2    3    0    0    0 -2.8467462596E+01 -5.7828655739E+01  4.5371402210E+02  4.6527426288E+02  8.0431188000E+01 0. 9.
 1000022    1    4    0    0    0  2.8413006860E+01 -1.2062272364E+00  1.4703914095E+02  1.9763691318E+02  1.2896157000E+02 0. 9.
      25    2    4    0    0    0 -1.7161493317E+00  1.1373310615E+01  5.0207082980E+01  1.3706516483E+02  1.2701893900E+02 0. 9.
      -3    1    6    0    0  102 -4.6051835335E+01 -6.7150435190E+01  3.9357450491E+02  4.0190930991E+02  5.0000000000E-01 0. 9.
       4    1    6    0  102    0  1.7584372740E+01  9.3217794512E+00  6.0139517190E+01  6.3364952968E+01  1.5000000000E+00 0. 9.
     -15    1    8    0    0    0  4.3787158677E+01 -3.5679524656E+01  3.4724847380E+00  5.6617661766E+01  1.7770000000E+00 0. 9.
      15    1    8    0    0    0 -4.5503308008E+01  4.7052835271E+01  4.6734598242E+01  8.0447503060E+01  1.7770000000E+00 0. 9.
</event>
<event>
    28   259  1.000000E+00  1.065864E+03  7.983095E-03  9.206619E-02
       2   -1    0    0  101    0  0.0000000000E+00  0.0000000000E+00  1.5842270312E+03  1.5842270312E+03  0.0000000000E+00 0. 9.
      21   -1    0    0  102  101  0.0000000000E+00  0.0000000000E+00 -8.8614947147E+02  8.8614947147E+02  0.0000000000E+00 0. 9.
 2000002    2    1    2  103    0 -4.9534855021E+02  1.5879880766E+02  9.0554150518E+02  1.4398842399E+03  9.9129912700E+02 0. 9.
 1000021    2    1    2  102  103  4.9534855021E+02 -1.5879880766E+02 -2.0746394544E+02  1.0304922628E+03  8.6503512500E+02 0. 9.
 1000021    2    3    0  103  104 -4.0247305976E+02  1.6820322632E+02  6.4692533358E+02  1.1649356394E+03  8.6503512500E+02 0. 9.
       2    1    3    0  104    0 -9.2875490446E+01 -9.4044186583E+00  2.5861617159E+02  2.7494860052E+02  3.3000000000E-01 0. 9.
 1000023    2    4    0    0    0  8.0656200498E+01 -2.0064041851E+02  2.3249973043E+01  3.4584082733E+02  2.6889276000E+02 0. 9.
       6    2    4    0  102    0  3.2025566477E+02  1.7448078860E+02 -1.7758518480E+02  4.4106912641E+02  1.7320000000E+02 0. 9.
      -6    2    4    0    0  103  9.4436684937E+01 -1.3263917775E+02 -5.3128733681E+01  2.4358230904E+02  1.7320000000E+02 0. 9.
-1000024    2    5    0    0    0 -2.5497670005E+01  3.5010101275E+02  3.5399137831E+02  5.6648986759E+02  2.6903535800E+02 0. 9.
       4    1    5    0  103    0 -1.4328368339E+02 -2.4120558704E+02  1.4945669147E+02  3.1788347200E+02  1.5000000000E+00 0. 9.
      -3    1    5    0    0  104 -2.3369170637E+02  5.9307800603E+01  1.4347726380E+02  2.8056229979E+02  5.0000000000E-01 0. 9.
 1000022    1    7    0    0    0  4.0439276370E+00 -1.1515909263E+02 -8.9089696934E-01  1.7294464490E+02  1.2896157000E+02 0. 9.
      25    2    7    0    0    0  7.6612272861E+01 -8.5481325881E+01  2.4140870012E+01  1.7289618242E+02  1.2701893900E+02 0. 9.
      24    2    8    0    0    0  1.6609035463E+02  1.5332145743E+02 -1.5001712683E+02  2.8296252323E+02  8.0431188000E+01 0. 9.
       5    1    8    0  102    0  1.5416531015E+02  2.1159331177E+01 -2.7568057968E+01  1.5810660318E+02  4.8000000000E+00 0. 9.
     -24    2    9    0    0    0 -1.6402723333E+01 -5.8277900120E+01 -4.3530550892E+01  1.0967883952E+02  8.0431188000E+01 0. 9.
      -5    1    9    0    0  103  1.1083940827E+02 -7.4361277632E+01 -9.5981827888E+00  1.3390346952E+02  4.8000000000E+00 0. 9.
 1000022    1   10    0    0    0  1.0609516924E+01  1.7042378206E+02  8.2801640766E+01  2.2944285910E+02  1.2896157000E+02 0. 9.
     -24    2   10    0    0    0 -3.6107186929E+01  1.7967723069E+02  2.7118973755E+02  3.3704700849E+02  8.0431188000E+01 0. 9.
       5    1   14    0  105    0  3.6641962738E+01  1.4639196576E+01  4.8058224919E+01  6.2366437224E+01  4.8000000000E+00 0. 9.
      -5    1   14    0    0  105  3.9970310123E+01 -1.0012052246E+02 -2.3917354907E+01  1.1052974520E+02  4.8000000000E+00 0. 9.
     -15    1   15    0    0    0  1.6188759936E+01  5.8972927061E+01 -5.3375459031E+01  8.1191005845E+01  1.7770000000E+00 0. 9.
      16    1   15    0    0    0  1.4990159469E+02  9.4348530366E+01 -9.6641667800E+01  2.0177151739E+02  0.0000000000E+00 0. 9.
       3    1   17    0  106    0 -2.3700106352E+01 -7.0898514043E+00  1.7027616796E+01  3.0035824739E+01  5.0000000000E-01 0. 9.
      -4    1   17    0    0  106  7.2973830186E+00 -5.1188048716E+01 -6.0558167688E+01  7.9643014784E+01  1.5000000000E+00 0. 9.
       3    1   20    0  107    0 -5.2695734105E+01  9.4947699850E+01  1.8819703049E+02  2.1727926359E+02  5.0000000000E-01 0. 9.
      -4    1   20    0    0  107  1.6588547177E+01  8.4729530838E+01  8.2992707055E+01  1.1976774490E+02  1.5000000000E+00 0. 9.
</event>
<event>
    15   276  1.000000E+00  1.005128E+03  7.977716E-03  9.267702E-02
      -2   -1    0    0    0  101  0.0000000000E+00  0.0000000000E+00  8.8013042189E+02  8.8013042189E+02  0.0000000000E+00 0. 9.
       1   -1    0    0  101    0  0.0000000000E+00  0.0000000000E+00 -1.2449449826E+03  1.2449449826E+03  0.0000000000E+00 0. 9.
-1000002    2    1    2    0  102  1.5171321827E+02 -6.3109760646E+01 -4.7908277266E+02  1.1133754219E+03  9.9150632100E+02 0. 9.
 2000001    2    1    2  102    0 -1.5171321827E+02  6.3109760646E+01  1.1426821196E+02  1.0116999826E+03  9.9170554500E+02 0. 9.
 1000023    2    3    0    0    0  1.0890643721E+00 -5.4324927436E+01 -7.5258046296E+02  8.0102000812E+02  2.6889276000E+02 0. 9.
      -2    1    3    0    0  102  1.5062415390E+02 -8.7848332093E+00  2.7349769030E+02  3.1235541380E+02  3.3000000000E-01 0. 9.
 1000021    2    4    0  102  103 -1.6074086368E+02  1.1349200194E+01  2.0807232210E+02  9.0418266313E+02  8.6503512500E+02 0. 9.
       1    1    4    0  103    0  9.0276454064E+00  5.1760560452E+01 -9.3804110142E+01  1.0751731944E+02  3.3000000000E-01 0. 9.
 1000022    1    5    0    0    0 -7.3512981364E+00  6.8093613235E+00 -2.9421579451E+02  3.2139450721E+02  1.2896157000E+02 0. 9.
      25    2    5    0    0    0  8.4403625084E+00 -6.1134288760E+01 -4.5836466844E+02  4.7962550091E+02  1.2701893900E+02 0. 9.
 1000022    1    7    0    0    0 -2.5770235175E+02 -2.8592936071E+02  2.0443825400E+02  4.5452413319E+02  1.2896157000E+02 0. 9.
       5    1    7    0  102    0 -4.5165858430E+01 -3.7875541015E+01  5.6467528446E+01  8.1768778539E+01  4.8000000000E+00 0. 9.
      -5    1    7    0    0  103  1.4212734650E+02  3.3515410192E+02 -5.2833460343E+01  3.6788975141E+02  4.8000000000E+00 0. 9.
       5    1   10    0  104    0  4.8999066283E+01 -1.7064166122E+01 -7.3486707007E+01  9.0085683484E+01  4.8000000000E+00 0. 9.
      -5    1   10    0    0  104 -4.0558703774E+01 -4.4070122638E+01 -3.8487796144E+02  3.8953981743E+02  4.8000000000E+00 0. 9.
</event>
<event>
    19   272  1.000000E+00  1.032248E+03  7.980156E-03  9.239883E-02
       2   -1    0    0  101    0  0.0000000000E+00  0.0000000000E+00  1.5843544989E+03  1.5843544989E+03  0.0000000000E+00 0. 9.
       1   -1    0    0  102    0  0.0000000000E+00  0.0000000000E+00 -1.0137027366E+03  1.0137027366E+03  0.0000000000E+00 0. 9.
 2000002    2    1    2  102    0 -2.7288394758E+02  8.9408881000E+01  1.0388995180E+03  1.4643926265E+03  9.9129912700E+02 0. 9.
 2000001    2    1    2  101    0  2.7288394758E+02 -8.9408881000E+01 -4.6824775576E+02  1.1336646090E+03  9.9170554500E+02 0. 9.
 1000022    1    3    0    0    0  3.5650739051E+02  1.2223074330E+02  3.4462791840E+02  5.2672323166E+02  1.2896157000E+02 0. 9.
       2    1    3    0  102    0 -6.2939133809E+02 -3.2821862300E+01  6.9427159962E+02  9.3766939485E+02  3.3000000000E-01 0. 9.
 1000021    2    4    0  101  103  2.7220606062E+02 -1.9425537232E+02 -4.2682936336E+02  1.0209311250E+03  8.6503512500E+02 0. 9.
       1    1    4    0  103    0  6.7788696428E-01  1.0484649132E+02 -4.1418392401E+01  1.1273348395E+02  3.3000000000E-01 0. 9.
-1000024    2    7    0    0    0  4.4246377403E+02  4.0677813702E+01 -2.8698032542E+02  5.9343627029E+02  2.6903535800E+02 0. 9.
       6    2    7    0  101    0 -3.1969567905E+01 -1.1379975047E+02 -1.2231605018E+02  2.4275891871E+02  1.7320000000E+02 0. 9.
      -5    1    7    0    0  103 -1.3828814551E+02 -1.2113343555E+02 -1.7532987755E+01  1.8473593602E+02  4.8000000000E+00 0. 9.
 1000022    1    9    0    0    0  1.9453163063E+02  8.9258504785E+00 -4.8126762550E+01  2.3847326461E+02  1.2896157000E+02 0. 9.
     -24    2    9    0    0    0  2.4793214340E+02  3.1751963224E+01 -2.3885356287E+02  3.5496300568E+02  8.0431188000E+01 0. 9.
      24    2   10    0    0    0  4.7691318406E-01  1.8946930686E+00 -8.4554925511E+01  1.1671558910E+02  8.0431188000E+01 0. 9.
       5    1   10    0  101    0 -3.2446481089E+01 -1.1569444354E+02 -3.7761124667E+01  1.2604332960E+02  4.8000000000E+00 0. 9.
       3    1   13    0  104    0  3.0343537329E+01 -2.9502972169E+00 -6.8131135290E-01  3.0498339241E+01  5.0000000000E-01 0. 9.
      -4    1   13    0    0  104  2.1758860607E+02  3.4702260441E+01 -2.3817225152E+02  3.2446466644E+02  1.5000000000E+00 0. 9.
     -11    1   14    0    0    0  3.2532878686E+01 -2.2971970762E+01 -4.4119423075E+01  5.9435874092E+01  5.1000000000E-04 0. 9.
      12    1   14    0    0    0 -3.2055965502E+01  2.4866663831E+01 -4.0435502436E+01  5.7279715009E+01  0.0000000000E+00 0. 9.
</event>
<event>
    24   259  1.000000E+00  9.564794E+02  7.973173E-03  9.319989E-02
      21   -1    0    0  101  102  0.0000000000E+00  0.0000000000E+00  4.3622731802E+02  4.3622731802E+02  0.0000000000E+00 0. 9.
       1   -1    0    0  102    0  0.0000000000E+00  0.0000000000E+00 -2.1573153198E+03  2.1573153198E+03  0.0000000000E+00 0. 9.
 1000021    2    1    2  101  103 -2.0261012326E+02  8.8989895873E+01 -5.7562894111E+02  1.0623579947E+03  8.6503512500E+02 0. 9.
 2000001    2    1    2  103    0  2.0261012326E+02 -8.8989895873E+01 -1.1454590607E+03  1.5311846431E+03  9.9170554500E+02 0. 9.
 1000023    2    3    0    0    0  3.3785640201E+00 -1.2491475303E+02 -3.5454961323E+02  4.6219460711E+02  2.6889276000E+02 0. 9.
       4    1    3    0  101    0 -3.5184470714E+02  1.7043849798E+02 -9.4525526102E+01  4.0222046768E+02  1.5000000000E+00 0. 9.
      -4    1    3    0    0  103  1.4585601986E+02  4.3466150929E+01 -1.2655380178E+02  1.9794291993E+02  1.5000000000E+00 0. 9.
 1000021    2    4    0  103  104  1.0087663277E+02  8.8259175140E+00 -1.0298210342E+03  1.3487294472E+03  8.6503512500E+02 0. 9.
       1    1    4    0  104    0  1.0173349049E+02 -9.7815813387E+01 -1.1563802651E+02  1.8245519590E+02  3.3000000000E-01 0. 9.
 1000022    1    5    0    0    0 -5.1721297044E+01 -2.5358905931E+01 -2.3250379743E+02  2.7204277059E+02  1.2896157000E+02 0. 9.
      23    2    5    0    0    0  5.5099861064E+01 -9.9555847103E+01 -1.2204581580E+02  1.9015183651E+02  9.1187600000E+01 0. 9.
-1000024    2    8    0    0    0  4.8348548829E+01 -1.9881206910E+02 -5.9700585044E+02  6.8604652197E+02  2.6903535800E+02 0. 9.
       6    2    8    0  103    0  2.0107068732E+02  1.6897106270E+02 -1.6823713602E+02  3.5676689205E+02  1.7320000000E+02 0. 9.
      -5    1    8    0    0  104 -1.4854260338E+02  3.8666923915E+01 -2.6457804774E+02  3.0591603321E+02  4.8000000000E+00 0. 9.
      12    1   11    0    0    0  2.5526289940E+01 -9.6684084327E+01 -4.9129604284E+01  1.1141418966E+02  0.0000000000E+00 0. 9.
     -12    1   11    0    0    0  2.9573571124E+01 -2.8717627760E+00 -7.2916211516E+01  7.8737646855E+01  0.0000000000E+00 0. 9.
 1000022    1   12    0    0    0 -1.2950633673E+01 -7.4628476044E+01 -4.2723898662E+02  4.5266032141E+02  1.2896157000E+02 0. 9.
     -24    2   12    0    0    0  6.1299182502E+01 -1.2418359305E+02 -1.6976686381E+02  2.3338620056E+02  8.0431188000E+01 0. 9.
      24    2   13    0    0    0  2.0243546823E+01  5.9751655574E+01 -6.8912030078E+01  1.2328059630E+02  8.0431188000E+01 0. 9.
       5    1   13    0  103    0  1.8082714050E+02  1.0921940712E+02 -9.9325105937E+01  2.3348629575E+02  4.8000000000E+00 0. 9.
       3    1   18    0  105    0 -2.2419998957E-01  4.9756964400E+00  5.3021667885E+00  7.2918305899E+00  5.0000000000E-01 0. 9.
      -4    1   18    0    0  105  6.1523382492E+01 -1.2915928949E+02 -1.7506903060E+02  2.2609436997E+02  1.5000000000E+00 0. 9.
      -3    1   19    0    0  106 -1.9413286857E+00 -1.5957161696E+01  3.1867147769E+00  1.6395271194E+01  5.0000000000E-01 0. 9.
       4    1   19    0  106    0  2.2184875509E+01  7.5708817270E+01 -7.2098744855E+01  1.0688532511E+02  1.5000000000E+00 0. 9.
</event>
<event>
    16   271  1.000000E+00  1.020685E+03  7.979124E-03  9.251634E-02
       2   -1    0    0  101    0  0.0000000000E+00  0.0000000000E+00  8.3452794622E+02  8.3452794622E+02  0.0000000000E+00 0. 9.
       2   -1    0    0  102    0  0.0000000000E+00  0.0000000000E+00 -1.8624058940E+03  1.8624058940E+03  0.0000000000E+00 0. 9.
 1000002    2    1    2  102    0 -2.2978013162E+02 -7.6897642709E+01  2.6034658033E+02  1.0533647435E+03  9.9150632100E+02 0. 9.
 1000002    2    1    2  101    0  2.2978013162E+02  7.6897642709E+01 -1.2882245281E+03  1.6435690967E+03  9.9150632100E+02 0. 9.
 1000024    2    3    0    0    0 -3.1179865972E+01 -3.5250950761E+02 -1.9485935385E+02  4.8537133067E+02  2.6903535800E+02 0. 9.
       1    1    3    0  102    0 -1.9860026564E+02  2.7561186490E+02  4.5520593418E+02  5.6799341282E+02  3.3000000000E-01 0. 9.
 1000023    2    4    0    0    0  2.8371242011E+02  9.3670315301E+00 -1.4272667691E+03  1.4798561502E+03  2.6889276000E+02 0. 9.
       2    1    4    0  101    0 -5.3932288493E+01  6.7530611179E+01  1.3904224101E+02  1.6371294656E+02  3.3000000000E-01 0. 9.
 1000022    1    5    0    0    0 -1.8792612604E+01 -3.3699769050E+02 -1.6618229927E+02  3.9770371990E+02  1.2896157000E+02 0. 9.
      24    2    5    0    0    0 -1.2387253368E+01 -1.5511817110E+01 -2.8677054575E+01  8.7667610771E+01  8.0431188000E+01 0. 9.
 1000022    1    7    0    0    0  2.3231284813E+02  4.0366648176E+01 -1.1683972659E+03  1.1989086634E+03  1.2896157000E+02 0. 9.
      23    2    7    0    0    0  5.1399571979E+01 -3.0999616646E+01 -2.5886950322E+02  2.8094748677E+02  9.1187600000E+01 0. 9.
      -1    1   10    0    0  103 -4.5019025926E+01  1.1049193005E+00 -8.4079047460E+00  4.5811955908E+01  3.3000000000E-01 0. 9.
       2    1   10    0  103    0  3.2631772557E+01 -1.6616736410E+01 -2.0269149829E+01  4.1855654862E+01  3.3000000000E-01 0. 9.
       5    1   12    0  104    0  1.7379606149E+00 -4.6609338938E+01 -6.4958138560E+01  8.0112737742E+01  4.8000000000E+00 0. 9.
      -5    1   12    0    0  104  4.9661611364E+01  1.5609722292E+01 -1.9391136466E+02  2.0083474902E+02  4.8000000000E+00 0. 9.
</event>
<event>
    12   273  1.000000E+00  1.517942E+03  8.015667E-03  8.854908E-02
       2   -1    0    0  101    0  0.0000000000E+00  0.0000000000E+00  8.8413283507E+02  8.8413283507E+02  0.0000000000E+00 0. 9.
       2   -1    0    0  102    0  0.0000000000E+00  0.0000000000E+00 -2.6123376909E+03  2.6123376909E+03  0.0000000000E+00 0. 9.
 2000002    2    1    2  101    0  1.0289391966E+03  5.1239772771E+02 -7.7869927402E+02  1.7059641908E+03  9.9129912700E+02 0. 9.
 1000002    2    1    2  102    0 -1.0289391966E+03 -5.1239772771E+02 -9.4950558177E+02  1.7905063351E+03  9.9150632100E+02 0. 9.
 1000022    1    3    0    0    0  1.0022255216E+03  7.4033691594E+02 -7.8148095738E+02  1.4764478719E+03  1.2896157000E+02 0. 9.
       2    1    3    0  101    0  2.6713675056E+01 -2.2793918823E+02  2.7816833665E+00  2.2951631887E+02  3.3000000000E-01 0. 9.
 1000024    2    4    0    0    0 -9.3712755362E+02 -6.8133969775E+02 -1.0381423568E+03  1.5787816228E+03  2.6903535800E+02 0. 9.
       1    1    4    0  102    0 -9.1811643018E+01  1.6894197004E+02  8.8636775050E+01  2.1172471237E+02  3.3000000000E-01 0. 9.
 1000022    1    7    0    0    0 -6.6681065219E+02 -4.3855057322E+02 -6.1854617337E+02  1.0179359048E+03  1.2896157000E+02 0. 9.
      24    2    7    0    0    0 -2.7031690143E+02 -2.4278912454E+02 -4.1959618345E+02  5.6084571797E+02  8.0431188000E+01 0. 9.
      -1    1   10    0    0  103 -2.2068242721E+02 -2.2960272707E+02 -3.8120688266E+02  4.9672622464E+02  3.3000000000E-01 0. 9.
       2    1   10    0  103    0 -4.9634474221E+01 -1.3186397467E+01 -3.8389300787E+01  6.4119493325E+01  3.3000000000E-01 0. 9.
</event>
<event>
    26   272  1.000000E+00  1.007673E+03  7.977948E-03  9.265053E-02
       1   -1    0    0  101    0  0.0000000000E+00  0.0000000000E+00  6.9143391913E+02  6.9143391913E+02  0.0000000000E+00 0. 9.
       2   -1    0    0  102    0  0.0000000000E+00  0.0000000000E+00 -1.5071872515E+03  1.5071872515E+03  0.0000000000E+00 0. 9.
 2000001    2    1    2  102    0  4.3725793600E-01 -1.7979818967E+02 -2.3194178999E+02  1.0342168352E+03  9.9170554500E+02 0. 9.
 2000002    2    1    2  101    0 -4.3725793600E-01  1.7979818967E+02 -5.8381154233E+02  1.1644043354E+03  9.9129912700E+02 0. 9.
 1000021    2    3    0  102  103 -5.0566711108E+01 -2.6429365949E+02 -2.3341757688E+02  9.3550930695E+02  8.6503512500E+02 0. 9.
       1    1    3    0  103    0  5.1003969044E+01  8.4495469817E+01  1.4757868890E+00  9.8707528207E+01  3.3000000000E-01 0. 9.
 1000021    2    4    0  101  104  2.8327726302E+01  2.6518600028E+02 -5.7822003465E+02  1.0741276697E+03  8.6503512500E+02 0. 9.
       2    1    4    0  104    0 -2.8764984238E+01 -8.5387810610E+01 -5.5915076779E+00  9.0276665740E+01  3.3000000000E-01 0. 9.
 1000024    2    5    0    0    0  6.9644288135E+01  1.9477435313E+02 -5.4722993883E+01  3.4374700787E+02  2.6903535800E+02 0. 9.
      -6    2    5    0    0  103 -1.4547899198E+02 -4.7777088112E+02 -1.5142395115E+02  5.4986962540E+02  1.7320000000E+02 0. 9.
       5    1    5    0  102    0  2.5267992736E+01  1.8702868501E+01 -2.7270631846E+01  4.1892673684E+01  4.8000000000E+00 0. 9.
-1000024    2    7    0    0    0  5.1522290388E+01  9.5645752977E+01 -2.3480111147E+02  3.7324823143E+02  2.6903535800E+02 0. 9.
       4    1    7    0  101    0  4.0193424739E+01 -6.2910855357E+00 -4.7216717750E+02  4.7391896212E+02  1.5000000000E+00 0. 9.
      -3    1    7    0    0  104 -6.3387988825E+01  1.7583133284E+02  1.2874825431E+02  2.2696047613E+02  5.0000000000E-01 0. 9.
 1000022    1    9    0    0    0  3.8377420546E+01  1.0645343577E+02 -1.1479283434E+02  2.0643071901E+02  1.2896157000E+02 0. 9.
      24    2    9    0    0    0  3.1266867589E+01  8.8320917357E+01  6.0069840462E+01  1.3731628887E+02  8.0431188000E+01 0. 9.
     -24    2   10    0    0    0 -6.8520159026E+01 -1.1851238497E+02 -6.9974521394E+01  1.7351025109E+02  8.0431188000E+01 0. 9.
      -5    1   10    0    0  103 -7.6958832954E+01 -3.5925849615E+02 -8.1449429757E+01  3.7635937431E+02  4.8000000000E+00 0. 9.
 1000022    1   12    0    0    0  4.6738541706E+01 -1.4231715130E+01 -1.7911623827E+02  2.2605474192E+02  1.2896157000E+02 0. 9.
     -24    2   12    0    0    0  4.7837486820E+00  1.0987746811E+02 -5.5684873194E+01  1.4719348951E+02  8.0431188000E+01 0. 9.
      -3    1   16    0    0  105  1.1307884223E+01  5.1291116543E+01 -1.1977816429E+01  5.3873601775E+01  5.0000000000E-01 0. 9.
       4    1   16    0  105    0  1.9958983365E+01  3.7029800814E+01  7.2047656891E+01  8.3442687090E+01  1.5000000000E+00 0. 9.
       1    1   17    0  106    0 -6.8409969712E+01 -9.4958915287E+01 -8.5813162584E+01  1.4512452350E+02  3.3000000000E-01 0. 9.
      -2    1   17    0    0  106 -1.1018931430E-01 -2.3553469683E+01  1.5838641190E+01  2.8385727585E+01  3.3000000000E-01 0. 9.
       3    1   20    0  107    0 -1.3789882258E+01  9.1829594158E+00  1.5328079602E+01  2.2576262326E+01  5.0000000000E-01 0. 9.
      -4    1   20    0    0  107  1.8573630940E+01  1.0069450869E+02 -7.1012952796E+01  1.2461722719E+02  1.5000000000E+00 0. 9.
</event>
<event>
    12   230  1.000000E+00  2.772463E+02  7.861427E-03  1.084763E-01
      -2   -1    0    0    0  101  0.0000000000E+00  0.0000000000E+00  2.4723584676E+02  2.4723584676E+02  0.0000000000E+00 0. 9.
       1   -1    0    0  101    0  0.0000000000E+00  0.0000000000E+00 -7.9315305294E+02  7.9315305294E+02  0.0000000000E+00 0. 9.
-1000024    2    1    2    0    0 -3.1664696072E+01  5.9339385016E+01  1.3263993637E+02  3.0740395600E+02  2.6903535800E+02 0. 9.
 1000023    2    1    2    0    0  3.1664696072E+01 -5.9339385016E+01 -6.7855714256E+02  7.3298494370E+02  2.6889276000E+02 0. 9.
 1000022    1    3    0    0    0  1.8025405527E+01  5.8924432197E+01  1.5438999313E+02  2.1039097051E+02  1.2896157000E+02 0. 9.
     -24    2    3    0    0    0 -4.9690101599E+01  4.1495281841E-01 -2.1750056762E+01  9.7012985497E+01  8.0431188000E+01 0. 9.
 1000022    1    4    0    0    0  2.8250599243E+00 -4.1740953156E+01 -5.7564610047E+02  5.9139648939E+02  1.2896157000E+02 0. 9.
      23    2    4    0    0    0  2.8839636148E+01 -1.7598431860E+01 -1.0291104208E+02  1.4158845431E+02  9.1187600000E+01 0. 9.
       1    1    6    0  102    0 -6.4533317041E+01  1.5356810623E+01 -3.1926961725E+01  7.3619429676E+01  3.3000000000E-01 0. 9.
      -2    1    6    0    0  102  1.4843215442E+01 -1.4941857805E+01  1.0176904963E+01  2.3393555821E+01  3.3000000000E-01 0. 9.
      15    1    8    0    0    0 -9.0136696933E+00 -4.7105514418E+01 -4.0240582661E+01  6.2630966397E+01  1.7770000000E+00 0. 9.
     -15    1    8    0    0    0  3.7853305841E+01  2.9507082558E+01 -6.2670459422E+01  7.8957487912E+01  1.7770000000E+00 0. 9.
</event>
<event>
    20   259  1.000000E+00  1.546404E+03  8.017386E-03  8.837171E-02
      21   -1    0    0  101  102  0.0000000000E+00  0.0000000000E+00  1.8292771203E+03  1.8292771203E+03  0.0000000000E+00 0. 9.
       1   -1    0    0  102    0  0.0000000000E+00  0.0000000000E+00 -1.7347764106E+03  1.7347764106E+03  0.0000000000E+00 0. 9.
 1000021    2    1    2  101  103 -9.4257796514E+02  7.9814062395E+02  9.3162212261E+02  1.7724805282E+03  8.6503512500E+02 0. 9.
 2000001    2    1    2  103    0  9.4257796514E+02 -7.9814062395E+02 -8.3712141291E+02  1.7915730027E+03  9.9170554500E+02 0. 9.
 1000024    2    3    0    0    0 -4.1562016989E+02  7.8284339868E+01  4.9257150769E+02  7.0276260397E+02  2.6903535800E+02 0. 9.
      -4    1    3    0    0  103 -5.7983020523E+02  5.6460687574E+02  3.3783992532E+02  8.7699604113E+02  1.5000000000E+00 0. 9.
       3    1    3    0  101    0  5.2872409984E+01  1.5524940835E+02  1.0121068961E+02  1.9272188309E+02  5.0000000000E-01 0. 9.
 1000021    2    4    0  103  104  9.4119605507E+02 -6.4942843559E+02 -7.7995933372E+02  1.6322468063E+03  8.6503512500E+02 0. 9.
       1    1    4    0  104    0  1.3819100691E+00 -1.4871218837E+02 -5.7162079188E+01  1.5932619634E+02  3.3000000000E-01 0. 9.
 1000022    1    5    0    0    0 -2.5451902325E+02  7.6649972999E+01  4.0821981513E+02  5.0391433355E+02  1.2896157000E+02 0. 9.
      24    2    5    0    0    0 -1.6110114665E+02  1.6343668692E+00  8.4351692554E+01  1.9884827041E+02  8.0431188000E+01 0. 9.
 1000024    2    8    0    0    0  3.5192029954E+02 -5.7805925584E+02 -3.1046138601E+02  7.9168598354E+02  2.6903535800E+02 0. 9.
      -4    1    8    0    0  104  2.6920560566E+02  1.2840322497E+02 -3.1223102183E+02  4.3179799362E+02  1.5000000000E+00 0. 9.
       3    1    8    0  103    0  3.2007014987E+02 -1.9977240472E+02 -1.5726692588E+02  4.0876282916E+02  5.0000000000E-01 0. 9.
      -1    1   11    0    0  105 -1.0342118156E+02  9.8674315882E-02  9.4696949897E+01  1.4022685817E+02  3.3000000000E-01 0. 9.
       2    1   11    0  105    0 -5.7679965086E+01  1.5356925533E+00 -1.0345257343E+01  5.8621412243E+01  3.3000000000E-01 0. 9.
 1000022    1   12    0    0    0  3.1969744811E+02 -3.8852171125E+02 -2.3418456878E+02  5.6976229889E+02  1.2896157000E+02 0. 9.
      24    2   12    0    0    0  3.2222851425E+01 -1.8953754459E+02 -7.6276817224E+01  2.2192368466E+02  8.0431188000E+01 0. 9.
      -3    1   18    0    0  106  9.6664593953E-01 -1.7080163522E+02 -5.3782509744E+01  1.7907244721E+02  5.0000000000E-01 0. 9.
       4    1   18    0  106    0  3.1256205486E+01 -1.8735909373E+01 -2.2494307480E+01  4.2851237443E+01  1.5000000000E+00 0. 9.
</event>
<event>
    15   273  1.000000E+00  1.568777E+03  8.018715E-03  8.823504E-02
       2   -1    0    0  101    0  0.0000000000E+00  0.0000000000E+00  1.9926520118E+03  1.9926520118E+03  0.0000000000E+00 0. 9.
       2   -1    0    0  102    0  0.0000000000E+00  0.0000000000E+00 -1.3333465766E+03  1.3333465766E+03  0.0000000000E+00 0. 9.
 1000002    2    1    2  101    0 -6.8999303294E+02 -1.0010445179E+03 -1.2182743008E+02  1.5735651304E+03  9.9150632100E+02 0. 9.
 2000002    2    1    2  102    0  6.8999303294E+02  1.0010445179E+03  7.8113286525E+02  1.7524334580E+03  9.9129912700E+02 0. 9.
 1000024    2    3    0    0    0 -8.6628034533E+02 -1.0471838299E+03 -1.2722952671E+02  1.3912594965E+03  2.6903535800E+02 0. 9.
       1    1    3    0  101    0  1.7628731239E+02  4.6139311945E+01  5.4020966285E+00  1.8230563393E+02  3.3000000000E-01 0. 9.
 1000021    2    4    0  102  103  7.0453968576E+02  1.0184277974E+03  8.1132867786E+02  1.7146752866E+03  8.6503512500E+02 0. 9.
       2    1    4    0  103    0 -1.4546652818E+01 -1.7383279454E+01 -3.0195812611E+01  3.7758171461E+01  3.3000000000E-01 0. 9.
 1000022    1    5    0    0    0 -7.0808438744E+02 -9.1110539831E+02 -1.2298837619E+02  1.1675845896E+03  1.2896157000E+02 0. 9.
      24    2    5    0    0    0 -1.5819595789E+02 -1.3607843157E+02 -4.2411505190E+00  2.2367490694E+02  8.0431188000E+01 0. 9.
 1000022    1    7    0    0    0  6.4585203258E+01  4.5711859304E+02  1.5068967122E+01  4.7956940779E+02  1.2896157000E+02 0. 9.
       1    1    7    0  102    0  4.1746238002E+01  1.9983164047E+02  4.5106633446E+01  2.0906972569E+02  3.3000000000E-01 0. 9.
      -1    1    7    0    0  103  5.9820824450E+02  3.6147756388E+02  7.5115307729E+02  1.0260361531E+03  3.3000000000E-01 0. 9.
     -11    1   10    0    0    0 -7.5728056741E+01 -1.1282094075E+02  1.2202831816E+01  1.3642658229E+02  5.1000000000E-04 0. 9.
      12    1   10    0    0    0 -8.2467901151E+01 -2.3257490824E+01 -1.6443982335E+01  8.7248324652E+01  0.0000000000E+00 0. 9.
</event>
<event>
    12   226  1.000000E+00  3.090967E+02  7.871114E-03  1.069370E-01
       2   -1    0    0  101    0  0.0000000000E+00  0.0000000000E+00  2.6734805090E+02  2.6734805090E+02  0.0000000000E+00 0. 9.
      -2   -1    0    0    0  101  0.0000000000E+00  0.0000000000E+00 -3.5758518271E+02  3.5758518271E+02  0.0000000000E+00 0. 9.
 1000024    2    1    2    0    0 -1.1111221440E+02 -1.0399446584E+02 -3.7362344600E+01  3.1134665850E+02  2.6903535800E+02 0. 9.
-1000024    2    1    2    0    0  1.1111221440E+02  1.0399446584E+02 -5.2874787214E+01  3.1358657511E+02  2.6903535800E+02 0. 9.
 1000022    1    3    0    0    0 -7.5923718759E+01 -1.4182975269E+02 -5.6648657240E+01  2.1382293311E+02  1.2896157000E+02 0. 9.
      24    2    3    0    0    0 -3.5188495638E+01  3.7835286854E+01  1.9286312640E+01  9.7523725395E+01  8.0431188000E+01 0. 9.
 1000022    1    4    0    0    0 -1.1357647394E+01  8.8339275675E+01  8.8812397673E-01  1.5673129580E+02  1.2896157000E+02 0. 9.
     -24    2    4    0    0    0  1.2246986179E+02  1.5655190164E+01 -5.3762911190E+01  1.5685527932E+02  8.0431188000E+01 0. 9.
     -11    1    6    0    0    0 -3.3985950868E+00  5.7901570899E+01  1.1313026149E+01  5.9094220716E+01  5.1000000000E-04 0. 9.
      12    1    6    0    0    0 -3.1789900551E+01 -2.0066284044E+01  7.9732864912E+00  3.8429504679E+01  0.0000000000E+00 0. 9.
       1    1    8    0  102    0  2.0291350323E+01 -5.6200030204E+00 -4.7895220073E+01  5.2320018518E+01  3.3000000000E-01 0. 9.
      -2    1    8    0    0  102  1.0217851147E+02  2.1275193184E+01 -5.8676911174E+00  1.0453526080E+02  3.3000000000E-01 0. 9.
</event>
<event>
    12   226  1.000000E+00  2.878855E+02  7.864779E-03  1.079383E-01
      -2   -1    0    0    0  101  0.0000000000E+00  0.0000000000E+00  6.8598044164E+01  6.8598044164E+01  0.0000000000E+00 0. 9.
       2   -1    0    0  101    0  0.0000000000E+00  0.0000000000E+00 -1.3921787201E+03  1.3921787201E+03  0.0000000000E+00 0. 9.
-1000024    2    1    2    0    0 -4.8237875921E+01  9.0394339350E+01 -9.2732813809E+02  9.7098688396E+02  2.6903535800E+02 0. 9.
 1000024    2    1    2    0    0  4.8237875921E+01 -9.0394339350E+01 -3.9625253788E+02  4.8978988035E+02  2.6903535800E+02 0. 9.
 1000022    1    3    0    0    0 -6.6894043564E+01  4.4292430919E+01 -7.8860744489E+02  8.0309988244E+02  1.2896157000E+02 0. 9.
     -24    2    3    0    0    0  1.8656167643E+01  4.6101908430E+01 -1.3872069320E+02  1.6788700151E+02  8.0431188000E+01 0. 9.
 1000022    1    4    0    0    0  1.1033357518E+02 -4.6574121655E+01 -2.6495401418E+02  3.1807917691E+02  1.2896157000E+02 0. 9.
      24    2    4    0    0    0 -6.2095699255E+01 -4.3820217695E+01 -1.3129852370E+02  1.7171070344E+02  8.0431188000E+01 0. 9.
       1    1    6    0  102    0  1.4739616670E+01 -2.1410451968E+01 -2.8511854856E+01  3.8583656130E+01  3.3000000000E-01 0. 9.
      -2    1    6    0    0  102  3.9165509730E+00  6.7512360398E+01 -1.1020883834E+02  1.2930334538E+02  3.3000000000E-01 0. 9.
     -15    1    8    0    0    0 -7.6361549625E+00  1.2670276159E+01 -7.1551891614E+01  7.3086781863E+01  1.7770000000E+00 0. 9.
      16    1    8    0    0    0 -5.4459544293E+01 -5.6490493854E+01 -5.9746632091E+01  9.8623921574E+01  0.0000000000E+00 0. 9.
</event>
<event>
    13   258  1.000000E+00  9.382826E+02  7.971415E-03  9.340392E-02
      21   -1    0    0  101  102  0.0000000000E+00  0.0000000000E+00  1.5410224503E+03  1.5410224503E+03  0.0000000000E+00 0. 9.
       2   -1    0    0  102    0  0.0000000000E+00  0.0000000000E+00 -9.0715249810E+02  9.0715249810E+02  0.0000000000E+00 0. 9.
 1000021    2    1    2  101  103  7.0123226617E+01 -9.8851984963E+01  1.0502186794E+03  1.3659919560E+03  8.6503512500E+02 0. 9.
 1000002    2    1    2  103    0 -7.0123226617E+01  9.8851984963E+01 -4.1634872719E+02  1.0821829924E+03  9.9150632100E+02 0. 9.
 1000022    1    3    0    0    0 -1.9883293192E+01  2.9614793797E+02  5.6591732897E+02  6.5191445473E+02  1.2896157000E+02 0. 9.
       2    1    3    0  101    0  2.1523667376E+02 -2.4961703821E+02  3.4367838938E+02  4.7618319555E+02  3.3000000000E-01 0. 9.
      -2    1    3    0    0  103 -1.2523015396E+02 -1.4538288473E+02  1.4062296107E+02  2.3789430576E+02  3.3000000000E-01 0. 9.
 1000024    2    4    0    0    0  2.5249182635E+02 -3.0373845287E+01 -5.8779246509E+02  6.9466157136E+02  2.6903535800E+02 0. 9.
       1    1    4    0  103    0 -3.2261505297E+02  1.2922583025E+02  1.7144373790E+02  3.8752142105E+02  3.3000000000E-01 0. 9.
 1000022    1    8    0    0    0  1.9274307516E+02 -8.8931592593E+01 -3.4019156552E+02  4.2121266478E+02  1.2896157000E+02 0. 9.
      24    2    8    0    0    0  5.9748751195E+01  5.8557747306E+01 -2.4760089957E+02  2.7344890658E+02  8.0431188000E+01 0. 9.
      -3    1   11    0    0  104  9.7180026977E+00  3.6202261170E+00  3.9806989205E+00  1.1119423432E+01  5.0000000000E-01 0. 9.
       4    1   11    0  104    0  5.0030748497E+01  5.4937521189E+01 -2.5158159849E+02  2.6232948315E+02  1.5000000000E+00 0. 9.
</event>
<event>
    13   258  1.000000E+00  9.451183E+02  7.972080E-03  9.332671E-02
       1   -1    0    0  101    0  0.0000000000E+00  0.0000000000E+00  1.9250868630E+03  1.9250868630E+03  0.0000000000E+00 0. 9.
      21   -1    0    0  102  101  0.0000000000E+00  0.0000000000E+00 -4.6379386413E+02  4.6379386413E+02  0.0000000000E+00 0. 9.
 1000001    2    1    2  103    0 -1.0789378117E+01 -1.5701570685E+02  8.5609030432E+02  1.3214883851E+03  9.9431916400E+02 0. 9.
 1000021    2    1    2  102  103  1.0789378117E+01  1.5701570685E+02  6.0520269457E+02  1.0673923421E+03  8.6503512500E+02 0. 9.
 1000023    2    3    0    0    0  3.1815237715E+02 -1.9471218762E+02  6.5624726441E+01  4.6448217640E+02  2.6889276000E+02 0. 9.
       1    1    3    0  103    0 -3.2894175526E+02  3.7696480773E+01  7.9046557788E+02  8.5700620869E+02  3.3000000000E-01 0. 9.
 1000022    1    4    0    0    0  6.8903203744E+01 -7.3057565362E+01  2.9964729097E+02  3.4132776750E+02  1.2896157000E+02 0. 9.
       2    1    4    0  102    0 -4.3464615104E+01 -7.9308267161E+01  3.9376734450E+02  4.0401955955E+02  3.3000000000E-01 0. 9.
      -2    1    4    0    0  103 -1.4649210523E+01  3.0938153937E+02 -8.8211940902E+01  3.2204501500E+02  3.3000000000E-01 0. 9.
 1000022    1    5    0    0    0  1.1512623682E+02 -6.3493749406E+01  5.0607399481E+01  1.9099136639E+02  1.2896157000E+02 0. 9.
      25    2    5    0    0    0  2.0302614033E+02 -1.3121843821E+02  1.5017326959E+01  2.7349081001E+02  1.2701893900E+02 0. 9.
       5    1   11    0  104    0  8.6938128220E+01 -4.8247186373E+01 -5.5804017400E+01  1.1411904963E+02  4.8000000000E+00 0. 9.
      -5    1   11    0    0  104  1.1608801211E+02 -8.2971251840E+01  7.0821344359E+01  1.5937176037E+02  4.8000000000E+00 0. 9.
</event>
<event>
    18   244  1.000000E+00  8.854130E+02  7.966113E-03  9.402542E-02
      21   -1    0    0  101  102  0.0000000000E+00  0.0000000000E+00  1.0536623209E+03  1.0536623209E+03  0.0000000000E+00 0. 9.
      21   -1    0    0  103  101  0.0000000000E+00  0.0000000000E+00 -7.4549062343E+02  7.4549062343E+02  0.0000000000E+00 0. 9.
 1000021    2    1    2  103  104  7.1325788842E+01  1.7488009404E+02  1.1426472981E+02  8.9275562805E+02  8.6503512500E+02 0. 9.
 1000021    2    1    2  104  102 -7.1325788842E+01 -1.7488009404E+02  1.9390696770E+02  9.0639731633E+02  8.6503512500E+02 0. 9.
-1000024    2    3    0    0    0 -1.4532705589E+02  6.0058702656E+01 -1.5720390953E+02  3.4902735418E+02  2.6903535800E+02 0. 9.
       2    1    3    0  103    0 -4.8420128959E+01  1.2090627107E+02 -3.8515773636E+01  1.3581755774E+02  3.3000000000E-01 0. 9.
      -1    1    3    0    0  104  2.6507297369E+02 -6.0848796920E+00  3.0998441298E+02  4.0791071612E+02  3.3000000000E-01 0. 9.
-1000024    2    4    0    0    0  2.0565235720E+02 -2.5062039959E+02  2.8449915673E+02  5.0835348996E+02  2.6903535800E+02 0. 9.
       2    1    4    0  104    0 -2.3464809360E+02 -4.0031319495E+01  1.1020569211E+01  2.3829350855E+02  3.3000000000E-01 0. 9.
      -1    1    4    0    0  102 -4.2330052444E+01  1.1577162505E+02 -1.0161275825E+02  1.5975031782E+02  3.3000000000E-01 0. 9.
 1000022    1    5    0    0    0 -4.5312099804E+01  9.7077770310E+01 -1.3132782917E+02  2.1296799085E+02  1.2896157000E+02 0. 9.
     -24    2    5    0    0    0 -1.0001495608E+02 -3.7019067654E+01 -2.5876080364E+01  1.3605936332E+02  8.0431188000E+01 0. 9.
 1000022    1    8    0    0    0  1.3840858145E+02 -5.3635262469E+01  1.5477775159E+02  2.5024171460E+02  1.2896157000E+02 0. 9.
     -24    2    8    0    0    0  6.7243775749E+01 -1.9698513712E+02  1.2972140515E+02  2.5811177536E+02  8.0431188000E+01 0. 9.
      11    1   12    0    0    0 -8.4688460652E+01 -1.9019795430E+01 -5.1716046083E+01  1.0103681214E+02  5.1000000000E-04 0. 9.
     -12    1   12    0    0    0 -1.5326495431E+01 -1.7999272224E+01  2.5839965719E+01  3.5022551180E+01  0.0000000000E+00 0. 9.
       3    1   14    0  105    0  4.9931655497E+01 -1.7314518014E+02  1.3856169669E+02  2.2731479806E+02  5.0000000000E-01 0. 9.
      -4    1   14    0    0  105  1.7312120252E+01 -2.3839956982E+01 -8.8402915428E+00  3.0796977304E+01  1.5000000000E+00 0. 9.
</event>
<event>
     7   237  1.000000E+00  1.300157E+03  8.001367E-03  9.005601E-02
      -2   -1    0    0    0  101  0.0000000000E+00  0.0000000000E+00  8.6393413374E+02  8.6393413374E+02  0.0000000000E+00 0. 9.
       2   -1    0    0  102    0  0.0000000000E+00  0.0000000000E+00 -1.9890003730E+03  1.9890003730E+03  0.0000000000E+00 0. 9.
 1000021    2    1    2  102  101 -1.1633241646E+01 -1.1435970632E+03 -3.8542787256E+02  1.4848535240E+03  8.6503512500E+02 0. 9.
 1000022    1    1    2    0    0  1.1633241646E+01  1.1435970632E+03 -7.3963836672E+02  1.3680809828E+03  1.2896157000E+02 0. 9.
 1000022    1    3    0    0    0  1.8747948438E+02 -7.7858539240E+01 -2.3640826772E+02  3.3723947690E+02  1.2896157000E+02 0. 9.
       2    1    3    0  102    0 -2.0244314347E+02 -2.4830919319E+02 -4.8291931595E+01  3.2399521805E+02  3.3000000000E-01 0. 9.
      -2    1    3    0    0  101  3.3304174525E+00 -8.1742933078E+02 -1.0072767323E+02  8.2361882905E+02  3.3000000000E-01 0. 9.
</event>
<event>
    13   259  1.000000E+00  9.478423E+02  7.972343E-03  9.329613E-02
      21   -1    0    0  101  102  0.0000000000E+00  0.0000000000E+00  6.7264688539E+02  6.7264688539E+02  0.0000000000E+00 0. 9.
       2   -1    0    0  102    0  0.0000000000E+00  0.0000000000E+00 -1.3742395203E+03  1.3742395203E+03  0.0000000000E+00 0. 9.
 1000021    2    1    2  101  103  1.5736720634E+02  9.0336472281E+01 -5.1197012713E+02  1.0214324718E+03  8.6503512500E+02 0. 9.
 2000002    2    1    2  103    0 -1.5736720634E+02 -9.0336472281E+01 -1.8962250773E+02  1.0254539339E+03  9.9129912700E+02 0. 9.
 1000024    2    3    0    0    0  1.9830231746E+02 -1.3851971249E+02 -4.3008543909E+02  5.6201870843E+02  2.6903535800E+02 0. 9.
      -2    1    3    0    0  103 -2.1132494296E+02  1.5389869117E+02 -7.9512603806E+01  2.7324970581E+02  3.3000000000E-01 0. 9.
       1    1    3    0  101    0  1.7038983184E+02  7.4957493593E+01 -2.3720842423E+00  1.8616405755E+02  3.3000000000E-01 0. 9.
 1000022    1    4    0    0    0  3.6378534617E+02  5.4364189617E+01 -2.7617840922E+02  4.7770371933E+02  1.2896157000E+02 0. 9.
       2    1    4    0  103    0 -5.2115255252E+02 -1.4470066190E+02  8.6555901488E+01  5.4775021454E+02  3.3000000000E-01 0. 9.
 1000022    1    5    0    0    0  2.1465475503E+02 -9.8313197702E+01 -2.9892882878E+02  4.0215877451E+02  1.2896157000E+02 0. 9.
      24    2    5    0    0    0 -1.6352437562E+01 -4.0206514784E+01 -1.3115661030E+02  1.5985993392E+02  8.0431188000E+01 0. 9.
      -3    1   11    0    0  104  2.4807976857E+01 -4.0505558669E+01 -5.0716549169E+01  6.9487800069E+01  5.0000000000E-01 0. 9.
       4    1   11    0  104    0 -4.1160414420E+01  2.9904388554E-01 -8.0440061134E+01  9.0372133856E+01  1.5000000000E+00 0. 9.
</event>
<event>
    22   244  1.000000E+00  9.398051E+02  7.971564E-03  9.338666E-02
      21   -1    0    0  101  102  0.0000000000E+00  0.0000000000E+00  1.3531202974E+03  1.3531202974E+03  0.0000000000E+00 0. 9.
      21   -1    0    0  103  101  0.0000000000E+00  0.0000000000E+00 -1.1404476605E+03  1.1404476605E+03  0.0000000000E+00 0. 9.
 1000021    2    1    2  103  104 -9.3119642458E+01  3.5535428737E+02 -7.0899475245E+02  1.1772456260E+03  8.6503512500E+02 0. 9.
 1000021    2    1    2  104  102  9.3119642458E+01 -3.5535428737E+02  9.2166738937E+02  1.3163223319E+03  8.6503512500E+02 0. 9.
 1000023    2    3    0    0    0 -2.1388748123E+02  1.2314371695E+02 -9.2249543658E+01  3.7646450608E+02  2.6889276000E+02 0. 9.
       2    1    3    0  103    0 -5.6666447364E+01 -4.8694587062E+01 -3.9341606686E+02  4.0044794872E+02  3.3000000000E-01 0. 9.
      -2    1    3    0    0  104  1.7743428614E+02  2.8090515749E+02 -2.2332914193E+02  4.0033317116E+02  3.3000000000E-01 0. 9.
 1000024    2    4    0    0    0  1.3984613805E+02 -1.5725522647E+02  2.0035433816E+02  3.9598994085E+02  2.6903535800E+02 0. 9.
      -6    2    4    0    0  102  1.7325753171E+02  3.8682770046E+01  3.2894801477E+02  4.1197034531E+02  1.7320000000E+02 0. 9.
       5    1    4    0  104    0 -2.1998402731E+02 -2.3678183095E+02  3.9236503644E+02  5.0836204575E+02  4.8000000000E+00 0. 9.
 1000022    1    5    0    0    0 -6.9481932345E+01  7.9753590838E+01 -5.6462441317E+01  1.7608937501E+02  1.2896157000E+02 0. 9.
      25    2    5    0    0    0 -1.4440554889E+02  4.3390126109E+01 -3.5787102341E+01  2.0037513107E+02  1.2701893900E+02 0. 9.
 1000022    1    8    0    0    0  2.7524180510E+01 -5.5308400865E+00  4.8088685566E+01  1.4046985058E+02  1.2896157000E+02 0. 9.
      24    2    8    0    0    0  1.1232195754E+02 -1.5172438638E+02  1.5226565260E+02  2.5552009027E+02  8.0431188000E+01 0. 9.
     -24    2    9    0    0    0  2.0098267268E+02  3.5309758743E+01  2.8409870908E+02  3.5891791023E+02  8.0431188000E+01 0. 9.
      -5    1    9    0    0  102 -2.7725140968E+01  3.3730113027E+00  4.4849305692E+01  5.3052435081E+01  4.8000000000E+00 0. 9.
       5    1   12    0  105    0  1.0517995818E+01  3.9489495566E+01  4.5101442525E-01  4.1149628310E+01  4.8000000000E+00 0. 9.
      -5    1   12    0    0  105 -1.5492354471E+02  3.9006305436E+00 -3.6238116766E+01  1.5922550276E+02  4.8000000000E+00 0. 9.
      -3    1   14    0    0  106  7.2240303832E+01 -1.2709999697E+02  7.3179434346E+01  1.6348868566E+02  5.0000000000E-01 0. 9.
       4    1   14    0  106    0  4.0081653708E+01 -2.4624389416E+01  7.9086218253E+01  9.2031404616E+01  1.5000000000E+00 0. 9.
      11    1   15    0    0    0  3.7644988917E+01  4.5876848294E+00  1.1465480704E+01  3.9618799713E+01  5.1000000000E-04 0. 9.
     -12    1   15    0    0    0  1.6333768376E+02  3.0722073914E+01  2.7263322837E+02  3.1929911052E+02  0.0000000000E+00 0. 9.
</event>
<event>
    12   230  1.000000E+00  2.897672E+02  7.865359E-03  1.078458E-01
      -1   -1    0    0    0  101  0.0000000000E+00  0.0000000000E+00  2.2247474038E+02  2.2247474038E+02  0.0000000000E+00 0. 9.
       2   -1    0    0  101    0  0.0000000000E+00  0.0000000000E+00 -6.9918636300E+02  6.9918636300E+02  0.0000000000E+00 0. 9.
 1000023    2    1    2    0    0  2.0339436718E+01  1.0587565718E+02  7.4295446922E+01  2.9907603930E+02  2.6889276000E+02 0. 9.
 1000024    2    1    2    0    0 -2.0339436718E+01 -1.0587565718E+02 -5.5100706955E+02  6.2258506408E+02  2.6903535800E+02 0. 9.
 1000022    1    3    0    0    0  1.0850594710E+01  1.3199752340E+01  1.5797850019E+01  1.3104437214E+02  1.2896157000E+02 0. 9.
      25    2    3    0    0    0  9.4888420081E+00  9.2675904836E+01  5.8497596903E+01  1.6803166716E+02  1.2701893900E+02 0. 9.
 1000022    1    4    0    0    0 -1.0810963301E+01  1.3470897969E+00 -1.4228432027E+02  1.9233981884E+02  1.2896157000E+02 0. 9.
      24    2    4    0    0    0 -9.5284734167E+00 -1.0722274697E+02 -4.0872274927E+02  4.3024524524E+02  8.0431188000E+01 0. 9.
       5    1    6    0  102    0  1.9854637415E+01  3.1589886496E+01 -3.7860313300E+01  5.3372004636E+01  4.8000000000E+00 0. 9.
      -5    1    6    0    0  102 -1.0365795407E+01  6.1086018341E+01  9.6357910203E+01  1.1465966252E+02  4.8000000000E+00 0. 9.
      -1    1    8    0    0  103 -4.4378666519E+01 -4.7657768338E+01 -1.8556625719E+02  1.9666131707E+02  3.3000000000E-01 0. 9.
       2    1    8    0  103    0  3.4850193102E+01 -5.9564978635E+01 -2.2315649209E+02  2.3358392817E+02  3.3000000000E-01 0. 9.
</event>
<event>
    12   230  1.000000E+00  2.920508E+02  7.866058E-03  1.077345E-01
       2   -1    0    0  101    0  0.0000000000E+00  0.0000000000E+00  7.2927749470E+02  7.2927749470E+02  0.0000000000E+00 0. 9.
      -1   -1    0    0    0  101  0.0000000000E+00  0.0000000000E+00 -1.3277030545E+02  1.3277030545E+02  0.0000000000E+00 0. 9.
 1000024    2    1    2    0    0  6.4282648720E+01 -9.3913600229E+01  1.4955817508E+02  3.2817631667E+02  2.6903535800E+02 0. 9.
 1000023    2    1    2    0    0 -6.4282648720E+01  9.3913600229E+01  4.4694901416E+02  5.3387148348E+02  2.6889276000E+02 0. 9.
 1000022    1    3    0    0    0 -1.0036799104E+01 -7.2204474092E+01  8.6365508425E+00  1.4839103734E+02  1.2896157000E+02 0. 9.
      24    2    3    0    0    0  7.4319447824E+01 -2.1709126137E+01  1.4092162424E+02  1.7978527933E+02  8.0431188000E+01 0. 9.
 1000022    1    4    0    0    0 -1.0081688766E+01  8.0302357057E+01  2.1212805408E+02  2.6111205806E+02  1.2896157000E+02 0. 9.
      25    2    4    0    0    0 -5.4200959954E+01  1.3611243172E+01  2.3482096008E+02  2.7275942542E+02  1.2701893900E+02 0. 9.
      -3    1    6    0    0  102  1.4432935797E+00 -2.6141784288E+01  6.7732012888E+00  2.7048146662E+01  5.0000000000E-01 0. 9.
       4    1    6    0  102    0  7.2876154244E+01  4.4326581515E+00  1.3414842295E+02  1.5273713267E+02  1.5000000000E+00 0. 9.
       5    1    8    0  103    0 -2.1415405733E+01 -3.3741192283E+01  2.0266167158E+02  2.0662013645E+02  4.8000000000E+00 0. 9.
      -5    1    8    0    0  103 -3.2785554220E+01  4.7352435455E+01  3.2159288497E+01  6.6139288971E+01  4.8000000000E+00 0. 9.
</event>
<event>
    12   230  1.000000E+00  2.720687E+02  7.859750E-03  1.087477E-01
      -1   -1    0    0    0  101  0.0000000000E+00  0.0000000000E+00  1.5641123784E+02  1.5641123784E+02  0.0000000000E+00 0. 9.
       2   -1    0    0  101    0  0.0000000000E+00  0.0000000000E+00 -7.6210640503E+02  7.6210640503E+02  0.0000000000E+00 0. 9.
 1000023    2    1    2    0    0  1.0889279755E+00 -4.0969840148E+01 -5.8554185124E+02  6.4563324690E+02  2.6889276000E+02 0. 9.
 1000024    2    1    2    0    0 -1.0889279755E+00  4.0969840148E+01 -2.0153315954E+01  2.7288439597E+02  2.6903535800E+02 0. 9.
 1000022    1    3    0    0    0  6.5292544990E+00 -1.0627923966E+01 -1.4394276109E+02  1.9366514642E+02  1.2896157000E+02 0. 9.
      23    2    3    0    0    0 -5.4403265236E+00 -3.0341916182E+01 -4.4159909016E+02  4.5196810048E+02  9.1187600000E+01 0. 9.
 1000022    1    4    0    0    0 -3.0421960430E+01  8.1491678142E+01  4.0080325463E+01  1.6063594962E+02  1.2896157000E+02 0. 9.
      24    2    4    0    0    0  2.9333032455E+01 -4.0521837995E+01 -6.0233641417E+01  1.1224844635E+02  8.0431188000E+01 0. 9.
       2    1    6    0  102    0 -2.1827336380E+01 -2.4279208747E+01 -4.2943814740E+02  4.3067754055E+02  3.3000000000E-01 0. 9.
      -2    1    6    0    0  102  1.6387009856E+01 -6.0627074353E+00 -1.2160942758E+01  2.1290559933E+01  3.3000000000E-01 0. 9.
     -15    1    8    0    0    0  1.8392230917E+01 -4.0981021687E+01  5.7876448366E+00  4.5325190108E+01  1.7770000000E+00 0. 9.
      16    1    8    0    0    0  1.0940801538E+01  4.5918369194E-01 -6.6021286254E+01  6.6923256246E+01  0.0000000000E+00 0. 9.
</event>
<event>
    30   276  1.000000E+00  1.003564E+03  7.977573E-03  9.269334E-02
      -1   -1    0    0    0  101  0.0000000000E+00  0.0000000000E+00  1.3284706912E+03  1.3284706912E+03  0.0000000000E+00 0. 9.
       2   -1    0    0  101    0  0.0000000000E+00  0.0000000000E+00 -1.0273147604E+03  1.0273147604E+03  0.0000000000E+00 0. 9.
-1000001    2    1    2    0  102 -1.3108565122E+02  6.5463633705E+01  7.5370220446E+02  1.2562669096E+03  9.9431916400E+02 0. 9.
 2000002    2    1    2  102    0  1.3108565122E+02 -6.5463633705E+01 -4.5254627359E+02  1.0995185420E+03  9.9129912700E+02 0. 9.
 1000021    2    3    0  103  102 -3.2821310955E+01  1.7399883606E+01  7.5208651815E+02  1.1468652461E+03  8.6503512500E+02 0. 9.
      -1    1    3    0    0  103 -9.8264340269E+01  4.8063750098E+01  1.6156863083E+00  1.0940166354E+02  3.3000000000E-01 0. 9.
 1000021    2    4    0  102  104  1.5599520886E+01 -2.6432513708E+00 -4.2995406928E+02  9.6612452666E+02  8.6503512500E+02 0. 9.
       2    1    4    0  104    0  1.1548613034E+02 -6.2820382334E+01 -2.2592204308E+01  1.3339401536E+02  3.3000000000E-01 0. 9.
 1000024    2    5    0    0    0  1.1151737634E+02  2.7674941309E+02  1.8488796729E+02  4.4225552249E+02  2.6903535800E+02 0. 9.
      -6    2    5    0    0  102 -1.9407782585E+02 -2.5479629538E+02  5.2573466892E+02  6.3951742489E+02  1.7320000000E+02 0. 9.
       5    1    5    0  103    0  4.9739138554E+01 -4.5532340974E+00  4.1463881934E+01  6.5092298699E+01  4.8000000000E+00 0. 9.
 1000024    2    7    0    0    0  9.3391381630E+01 -1.8759822525E+02 -2.8854647917E+02  4.4671482936E+02  2.6903535800E+02 0. 9.
      -6    2    7    0    0  104 -3.4617321242E+01 -6.3726213985E+01  5.9286851610E+01  1.9690749110E+02  1.7320000000E+02 0. 9.
       5    1    7    0  102    0 -4.3174539502E+01  2.4868118786E+02 -2.0069444172E+02  3.2250220619E+02  4.8000000000E+00 0. 9.
 1000022    1    9    0    0    0  1.6569651864E+01  9.4055695861E+01  1.0709375884E+01  1.6083160310E+02  1.2896157000E+02 0. 9.
      24    2    9    0    0    0  9.4947724481E+01  1.8269371723E+02  1.7417859141E+02  2.8142391939E+02  8.0431188000E+01 0. 9.
     -24    2   10    0    0    0 -2.1457064993E+01 -8.8251680959E+01  2.1596474916E+02  2.4770691091E+02  8.0431188000E+01 0. 9.
      -5    1   10    0    0  102 -1.7262076086E+02 -1.6654461443E+02  3.0976991976E+02  3.9181051398E+02  4.8000000000E+00 0. 9.
 1000022    1   12    0    0    0  3.0349498232E+01 -1.9773933176E+02 -1.9278183124E+02  3.0629700678E+02  1.2896157000E+02 0. 9.
      24    2   12    0    0    0  6.3041883398E+01  1.0141106513E+01 -9.5764647928E+01  1.4041782259E+02  8.0431188000E+01 0. 9.
     -24    2   13    0    0    0 -5.0763596764E+01 -4.9429190410E+01 -2.4755072085E+01  1.1000989600E+02  8.0431188000E+01 0. 9.
      -5    1   13    0    0  104  1.6146275522E+01 -1.4297023574E+01  8.4041923695E+01  8.6897595103E+01  4.8000000000E+00 0. 9.
     -15    1   16    0    0    0  6.5391621750E+01  1.3689258309E+02  7.7332573879E+01  1.7029130398E+02  1.7770000000E+00 0. 9.
      16    1   16    0    0    0  2.9556102732E+01  4.5801134139E+01  9.6846017530E+01  1.1113261541E+02  0.0000000000E+00 0. 9.
       1    1   17    0  105    0 -4.3336547898E+01 -1.8225275921E+01  6.9705823896E+01  8.4078700341E+01  3.3000000000E-01 0. 9.
      -2    1   17    0    0  105  2.1879482905E+01 -7.0026405038E+01  1.4625892526E+02  1.6362821057E+02  3.3000000000E-01 0. 9.
      -1    1   20    0    0  106  9.5682772815E+00 -3.2365324683E+01 -3.9197332517E+01  5.1726259757E+01  3.3000000000E-01 0. 9.
       2    1   20    0  106    0  5.3473606117E+01  4.2506431196E+01 -5.6567315411E+01  8.8691562828E+01  3.3000000000E-01 0. 9.
       3    1   21    0  107    0 -5.2219548782E+01 -3.5215542072E+01  1.7525655700E+01  6.5379004934E+01  5.0000000000E-01 0. 9.
      -2    1   21    0    0  107  1.4559520184E+00 -1.4213648338E+01 -4.2280727785E+01  4.4630891066E+01  3.3000000000E-01 0. 9.
</event>
<event>
    19   271  1.000000E+00  1.075978E+03  7.983962E-03  9.196862E-02
       2   -1    0    0  101    0  0.0000000000E+00  0.0000000000E+00  8.0850920924E+02  8.0850920924E+02  0.0000000000E+00 0. 9.
       1   -1    0    0  102    0  0.0000000000E+00  0.0000000000E+00 -1.4678716078E+03  1.4678716078E+03  0.0000000000E+00 0. 9.
 1000002    2    1    2  102    0 -3.3284033165E+02  2.4712068129E+02 -5.0739937412E+02  1.1884402496E+03  9.9150632100E+02 0. 9.
 1000001    2    1    2  101    0  3.3284033165E+02 -2.4712068129E+02 -1.5196302442E+02  1.0879405674E+03  9.9431916400E+02 0. 9.
 1000021    2    3    0  102  103 -2.3293007700E+02  1.7976433182E+02 -3.2490078774E+02  9.6975147596E+02  8.6503512500E+02 0. 9.
       2    1    3    0  103    0 -9.9910254653E+01  6.7356349469E+01 -1.8249858638E+02  2.1868877367E+02  3.3000000000E-01 0. 9.
-1000024    2    4    0    0    0  1.8187664913E+02 -4.3402438547E+02  2.6755096300E+02  6.0449964792E+02  2.6903535800E+02 0. 9.
       2    1    4    0  101    0  1.5096368253E+02  1.8690370418E+02 -4.1951398742E+02  4.8344091947E+02  3.3000000000E-01 0. 9.
 1000023    2    5    0    0    0  3.7030856302E+00  1.5032846777E+02 -2.3765024478E+01  3.0899911624E+02  2.6889276000E+02 0. 9.
       5    1    5    0  102    0 -1.4640826912E+02  1.8761115035E+02  6.9335009505E+01  2.4791875392E+02  4.8000000000E+00 0. 9.
      -5    1    5    0    0  103 -9.0224893508E+01 -1.5817528630E+02 -3.7047077277E+02  4.1283360580E+02  4.8000000000E+00 0. 9.
 1000022    1    7    0    0    0  1.4541285940E+02 -2.9054635589E+02  9.2605812468E+01  3.6161997683E+02  1.2896157000E+02 0. 9.
     -24    2    7    0    0    0  3.6463789728E+01 -1.4347802958E+02  1.7494515053E+02  2.4287967110E+02  8.0431188000E+01 0. 9.
 1000022    1    9    0    0    0  5.8732423779E+01  8.7487726398E+01  3.7928715895E+01  1.7080185567E+02  1.2896157000E+02 0. 9.
      23    2    9    0    0    0 -5.5029338149E+01  6.2840741372E+01 -6.1693740373E+01  1.3819726057E+02  9.1187600000E+01 0. 9.
       1    1   13    0  104    0 -3.5864228825E+00 -8.9832019706E+00  6.1975378551E+01  6.2726523842E+01  3.3000000000E-01 0. 9.
      -2    1   13    0    0  104  4.0050212610E+01 -1.3449482761E+02  1.1296977198E+02  1.8015314726E+02  3.3000000000E-01 0. 9.
       2    1   15    0  105    0 -2.5148497276E+01  5.7054283651E+01 -8.0950200002E+01  1.0217965540E+02  3.3000000000E-01 0. 9.
      -2    1   15    0    0  105 -2.9880840873E+01  5.7864577217E+00  1.9256459629E+01  3.6017605163E+01  3.3000000000E-01 0. 9.
</event>
<event>
    12   226  1.000000E+00  3.155577E+02  7.872960E-03  1.066492E-01
       2   -1    0    0  101    0  0.0000000000E+00  0.0000000000E+00  1.5045730840E+03  1.5045730840E+03  0.0000000000E+00 0. 9.
      -2   -1    0    0    0  101  0.0000000000E+00  0.0000000000E+00 -6.6190246567E+01  6.6190246567E+01  0.0000000000E+00 0. 9.
 1000024    2    1    2    0    0 -8.0716973970E+01  1.4381033174E+02  7.1078919289E+02  7.7768756065E+02  2.6903535800E+02 0. 9.
-1000024    2    1    2    0    0  8.0716973970E+01 -1.4381033174E+02  7.2759364455E+02  7.9307576993E+02  2.6903535800E+02 0. 9.
 1000022    1    3    0    0    0  5.9398320066E+00 -3.4856792144E-01  2.8677536449E+02  3.1449419601E+02  1.2896157000E+02 0. 9.
      24    2    3    0    0    0 -8.6656805977E+01  1.4415889966E+02  4.2401382840E+02  4.6319336465E+02  8.0431188000E+01 0. 9.
 1000022    1    4    0    0    0  9.6717977084E+01 -7.9094686506E+01  6.0953898999E+02  6.3543623077E+02  1.2896157000E+02 0. 9.
     -24    2    4    0    0    0 -1.6001003114E+01 -6.4715645234E+01  1.1805465457E+02  1.5763953916E+02  8.0431188000E+01 0. 9.
     -11    1    6    0    0    0 -7.5521124355E+01  1.4630793719E+02  3.3306024760E+02  3.7153543739E+02  5.1000000000E-04 0. 9.
      12    1    6    0    0    0 -1.1135681621E+01 -2.1490375271E+00  9.0953580805E+01  9.1657927255E+01  0.0000000000E+00 0. 9.
      15    1    8    0    0    0  2.2629241794E+01 -1.3651099921E+01  3.9271710367E+00  2.6777145377E+01  1.7770000000E+00 0. 9.
     -16    1    8    0    0    0 -3.8630244908E+01 -5.1064545313E+01  1.1412748353E+02  1.3086239378E+02  0.0000000000E+00 0. 9.
</event>
<event>
    18   243  1.000000E+00  9.603132E+02  7.973539E-03  9.315751E-02
       3   -1    0    0  101    0  0.0000000000E+00  0.0000000000E+00  1.1535730201E+03  1.1535730201E+03  0.0000000000E+00 0. 9.
      -3   -1    0    0    0  102  0.0000000000E+00  0.0000000000E+00 -9.5536874128E+02  9.5536874128E+02  0.0000000000E+00 0. 9.
 1000021    2    1    2  101  103  2.9891030693E+02  2.9080614457E+02 -3.2691347596E+02  1.0144327349E+03  8.6503512500E+02 0. 9.
 1000021    2    1    2  103  102 -2.9891030693E+02 -2.9080614457E+02  5.2511775482E+02  1.0945090266E+03  8.6503512500E+02 0. 9.
 1000024    2    3    0    0    0  8.4704509231E+01 -7.9020527835E+01 -3.6060839561E+02  4.6458318582E+02  2.6903535800E+02 0. 9.
      -4    1    3    0    0  103  7.2685707028E+01  1.8510143834E+01 -1.1965871731E+02  1.4123135650E+02  1.5000000000E+00 0. 9.
       3    1    3    0  101    0  1.4152009067E+02  3.5131652857E+02  1.5335363696E+02  4.0861819254E+02  5.0000000000E-01 0. 9.
 1000023    2    4    0    0    0 -7.4969569225E+01  1.5028143396E+02 -5.3818167911E+01  3.2156594546E+02  2.6889276000E+02 0. 9.
       5    1    4    0  103    0 -1.6959703866E+02 -3.1466897302E+02  4.9864524427E+02  6.1355508126E+02  4.8000000000E+00 0. 9.
      -5    1    4    0    0  102 -5.4343699037E+01 -1.2641860551E+02  8.0290678466E+01  1.5938799984E+02  4.8000000000E+00 0. 9.
 1000022    1    5    0    0    0  9.5494436118E+01 -8.0824965698E+01 -3.3382481520E+02  3.7910678731E+02  1.2896157000E+02 0. 9.
      24    2    5    0    0    0 -1.0789926887E+01  1.8044378628E+00 -2.6783580418E+01  8.5476398505E+01  8.0431188000E+01 0. 9.
 1000022    1    8    0    0    0 -5.2882878416E+01  1.1235519616E+02 -5.4620989794E+01  1.8717592793E+02  1.2896157000E+02 0. 9.
      25    2    8    0    0    0 -2.2086690810E+01  3.7926237804E+01  8.0282188342E-01  1.3439001753E+02  1.2701893900E+02 0. 9.
     -15    1   12    0    0    0 -1.8565432554E+01 -9.8790954240E+00 -5.2276274736E+01  5.6375867546E+01  1.7770000000E+00 0. 9.
      16    1   12    0    0    0  7.7755056675E+00  1.1683533287E+01  2.5492694318E+01  2.9100530958E+01  0.0000000000E+00 0. 9.
      21    1   14    0  104  105  2.7441435922E+01  6.8474760808E+01  1.3075177415E+01  7.4918525997E+01  0.0000000000E+00 0. 9.
      21    1   14    0  105  104 -4.9528126731E+01 -3.0548523004E+01 -1.2272355532E+01  5.9471491536E+01  0.0000000000E+00 0. 9.
</event>
<event>
    12   230  1.000000E+00  2.997636E+02  7.868381E-03  1.073666E-01
      -1   -1    0    0    0  101  0.0000000000E+00  0.0000000000E+00  2.4545861054E+02  2.4545861054E+02  0.0000000000E+00 0. 9.
       2   -1    0    0  101    0  0.0000000000E+00  0.0000000000E+00 -4.7461445074E+02  4.7461445074E+02  0.0000000000E+00 0. 9.
 1000023    2    1    2    0    0  1.3211904784E+02 -7.8161056959E+00 -2.8672771293E+02  4.1476816663E+02  2.6889276000E+02 0. 9.
 1000024    2    1    2    0    0 -1.3211904784E+02  7.8161056959E+00  5.7571872741E+01  3.0530489465E+02  2.6903535800E+02 0. 9.
 1000022    1    3    0    0    0  6.9604141691E+01 -4.2757759768E+01 -1.6534934928E+02  2.2504323230E+02  1.2896157000E+02 0. 9.
      25    2    3    0    0    0  6.2514906145E+01  3.4941654072E+01 -1.2137836365E+02  1.8972493433E+02  1.2701893900E+02 0. 9.
 1000022    1    4    0    0    0 -5.7432991390E+00 -3.2734436068E+01 -1.4936940630E+01  1.3401017693E+02  1.2896157000E+02 0. 9.
      24    2    4    0    0    0 -1.2637574870E+02  4.0550541764E+01  7.2508813372E+01  1.7129471771E+02  8.0431188000E+01 0. 9.
       5    1    6    0  102    0  4.7026780685E+01  3.8921494622E+01  5.7526005461E+00  6.1502302870E+01  4.8000000000E+00 0. 9.
      -5    1    6    0    0  102  1.5488125460E+01 -3.9798405504E+00 -1.2713096420E+02  1.2822263146E+02  4.8000000000E+00 0. 9.
      -1    1    8    0    0  103 -3.2143709243E+01 -2.1075148565E+01  3.6695630196E+01  5.3141867735E+01  3.3000000000E-01 0. 9.
       2    1    8    0  103    0 -9.4232039454E+01  6.1625690329E+01  3.5813183176E+01  1.1815284998E+02  3.3000000000E-01 0. 9.
</event>
<event>
    20   259  1.000000E+00  9.816747E+02  7.975553E-03  9.292513E-02
      21   -1    0    0  101  102  0.0000000000E+00  0.0000000000E+00  1.6654400987E+03  1.6654400987E+03  0.0000000000E+00 0. 9.
       1   -1    0    0  102    0  0.0000000000E+00  0.0000000000E+00 -8.0387874598E+02  8.0387874598E+02  0.0000000000E+00 0. 9.
 1000021    2    1    2  101  103 -2.9657870644E+02  9.9214204445E+01  1.0676533985E+03  1.4092451648E+03  8.6503512500E+02 0. 9.
 2000001    2    1    2  103    0  2.9657870644E+02 -9.9214204445E+01 -2.0609204585E+02  1.0600736799E+03  9.9170554500E+02 0. 9.
 1000023    2    3    0    0    0 -4.5339499968E+02  1.1830000562E+02  4.6509683952E+02  7.1286766204E+02  2.6889276000E+02 0. 9.
       2    1    3    0  101    0  9.7300523184E+01  4.7007762085E+00  6.2185686824E+02  6.2944067440E+02  3.3000000000E-01 0. 9.
      -2    1    3    0    0  103  5.9515770062E+01 -2.3786577386E+01 -1.9300309213E+01  6.6936828320E+01  3.3000000000E-01 0. 9.
 1000021    2    4    0  103  104  3.7805722601E+02 -1.2872006897E+02 -1.9712020190E+02  9.7295337184E+02  8.6503512500E+02 0. 9.
       1    1    4    0  104    0 -8.1478519571E+01  2.9505864529E+01 -8.9718439533E+00  8.7120308063E+01  3.3000000000E-01 0. 9.
 1000022    1    5    0    0    0 -2.1376470327E+02  7.4092059227E+01  1.7787089059E+02  3.1536347578E+02  1.2896157000E+02 0. 9.
      25    2    5    0    0    0 -2.3963029642E+02  4.4207946396E+01  2.8722594893E+02  3.9750418625E+02  1.2701893900E+02 0. 9.
-1000024    2    8    0    0    0 -3.0033947058E+01 -1.7474738762E+02 -3.2456134653E+02  4.5733880107E+02  2.6903535800E+02 0. 9.
       2    1    8    0  103    0  2.2316429614E+02  1.5103628299E+02  3.5441261800E+00  2.6949384330E+02  3.3000000000E-01 0. 9.
      -1    1    8    0    0  104  1.8492687693E+02 -1.0500896435E+02  1.2389701845E+02  2.4612072746E+02  3.3000000000E-01 0. 9.
       5    1   11    0  105    0  1.0405488009E+00 -2.2598469259E+01  1.2925884097E+01  2.6493245070E+01  4.8000000000E+00 0. 9.
      -5    1   11    0    0  105 -2.4067084522E+02  6.6806415654E+01  2.7430006483E+02  3.7101094118E+02  4.8000000000E+00 0. 9.
 1000022    1   12    0    0    0 -4.0791041136E+01 -1.8745358439E+02 -2.8262138215E+02  3.6511462244E+02  1.2896157000E+02 0. 9.
     -24    2   12    0    0    0  1.0757094078E+01  1.2706196771E+01 -4.1939964380E+01  9.2224178634E+01  8.0431188000E+01 0. 9.
       1    1   18    0  106    0 -7.0948710971E+00  1.7564691363E+01  2.0017781013E+01  2.7562221159E+01  3.3000000000E-01 0. 9.
      -2    1   18    0    0  106  1.7851965175E+01 -4.8584945921E+00 -6.1957745393E+01  6.4661957475E+01  3.3000000000E-01 0. 9.
</event>
<event>
    15   241  1.000000E+00  8.020902E+02  7.957094E-03  9.510380E-02
      -2   -1    0    0    0  101  0.0000000000E+00  0.0000000000E+00  1.0861702190E+03  1.0861702190E+03  0.0000000000E+00 0. 9.
       1   -1    0    0  102    0  0.0000000000E+00  0.0000000000E+00 -6.3875143245E+02  6.3875143245E+02  0.0000000000E+00 0. 9.
-1000024    2    1    2    0    0  2.1110692799E+02 -4.3410786329E+02  4.8260309472E+02  7.3369035901E+02  2.6903535800E+02 0. 9.
 1000021    2    1    2  102  101 -2.1110692799E+02  4.3410786329E+02 -3.5184308200E+01  9.9123129241E+02  8.6503512500E+02 0. 9.
 1000022    1    3    0    0    0  2.0837992952E+02 -2.4261837263E+02  3.0680856094E+02  4.6157171639E+02  1.2896157000E+02 0. 9.
     -24    2    3    0    0    0  2.7269984738E+00 -1.9148949066E+02  1.7579453378E+02  2.7211864263E+02  8.0431188000E+01 0. 9.
 1000023    2    4    0    0    0 -2.9188324836E+01  2.0903014395E+02  3.1856105941E+02  4.6725798478E+02  2.6889276000E+02 0. 9.
       4    1    4    0  102    0 -7.6656402841E+01  7.1886757453E+01  1.9603286338E+01  1.0691327714E+02  1.5000000000E+00 0. 9.
      -4    1    4    0    0  101 -1.0526220032E+02  1.5319096189E+02 -3.7334865395E+02  4.1706003048E+02  1.5000000000E+00 0. 9.
      15    1    6    0    0    0  1.3699554280E+01 -4.1584629082E+01  8.7341897004E+01  9.7717571934E+01  1.7770000000E+00 0. 9.
     -16    1    6    0    0    0 -1.0972555806E+01 -1.4990486158E+02  8.8452636779E+01  1.7440107069E+02  0.0000000000E+00 0. 9.
 1000022    1    7    0    0    0 -2.9495646866E+01  1.0307177134E+02  2.1273909766E+02  2.7089258654E+02  1.2896157000E+02 0. 9.
      25    2    7    0    0    0  3.0732203047E-01  1.0595837261E+02  1.0582196175E+02  1.9636539824E+02  1.2701893900E+02 0. 9.
       5    1   13    0  103    0 -6.8044778844E+00  8.3782092597E+00  9.7326855557E+01  9.8041073649E+01  4.8000000000E+00 0. 9.
      -5    1   13    0    0  103  7.1117999149E+00  9.7580163350E+01  8.4951061963E+00  9.8324324594E+01  4.8000000000E+00 0. 9.
</event>
<event>
    14   248  1.000000E+00  7.733245E+02  7.953767E-03  9.550859E-02
      21   -1    0    0  101  102  0.0000000000E+00  0.0000000000E+00  5.8516706780E+02  5.8516706780E+02  0.0000000000E+00 0. 9.
      -1   -1    0    0    0  101  0.0000000000E+00  0.0000000000E+00 -1.0516019797E+03  1.0516019797E+03  0.0000000000E+00 0. 9.
 1000023    2    1    2    0    0 -7.0582735406E+01  2.5012368985E+02 -4.8059472728E+02  6.0894859474E+02  2.6889276000E+02 0. 9.
-1000001    2    1    2    0  102  7.0582735406E+01 -2.5012368985E+02  1.4159815420E+01  1.0278204527E+03  9.9431916400E+02 0. 9.
 1000022    1    3    0    0    0 -3.8891045053E+01  1.3089915295E+02 -3.1366461058E+02  3.6560043230E+02  1.2896157000E+02 0. 9.
      25    2    3    0    0    0 -3.1691690352E+01  1.1922453690E+02 -1.6693011670E+02  2.4334816244E+02  1.2701893900E+02 0. 9.
 1000024    2    4    0    0    0  1.4153027089E+00 -1.1545387124E+02  4.6653337856E+02  5.5078581738E+02  2.6903535800E+02 0. 9.
      -2    1    4    0    0  102  6.9167432697E+01 -1.3466981861E+02 -4.5237356314E+02  4.7703463534E+02  3.3000000000E-01 0. 9.
       5    1    6    0  103    0  3.2741694337E+01  2.9687630346E+01 -1.5346766755E+00  4.4483358417E+01  4.8000000000E+00 0. 9.
      -5    1    6    0    0  103 -6.4433384689E+01  8.9536906559E+01 -1.6539544003E+02  1.9886480403E+02  4.8000000000E+00 0. 9.
 1000022    1    7    0    0    0 -4.5862660027E+01  7.2753114636E+00  1.9161403904E+02  2.3559146893E+02  1.2896157000E+02 0. 9.
      24    2    7    0    0    0  4.7277962736E+01 -1.2272918270E+02  2.7491933952E+02  3.1519434845E+02  8.0431188000E+01 0. 9.
      -1    1   12    0    0  104  1.1362768594E+01  1.8455776535E-02  8.7863774606E+01  8.8596075753E+01  3.3000000000E-01 0. 9.
       2    1   12    0  104    0  3.5915194142E+01 -1.2274763848E+02  1.8705556491E+02  2.2659827269E+02  3.3000000000E-01 0. 9.
</event>
<event>
     9   259  1.000000E+00  1.090670E+03  7.985207E-03  9.182886E-02
      21   -1    0    0  101  102  0.0000000000E+00  0.0000000000E+00  5.7445752804E+02  5.7445752804E+02  0.0000000000E+00 0. 9.
       2   -1    0    0  102    0  0.0000000000E+00  0.0000000000E+00 -2.2669030003E+03  2.2669030003E+03  0.0000000000E+00 0. 9.
 1000021    2    1    2  101  103 -3.5566481564E+02 -4.4450271718E+02 -3.8538300030E+02  1.1049370801E+03  8.6503512500E+02 0. 9.
 2000002    2    1    2  103    0  3.5566481564E+02  4.4450271718E+02 -1.3070624720E+03  1.7364234482E+03  9.9129912700E+02 0. 9.
 1000022    1    3    0    0    0 -1.4386894009E+02  1.2104498517E+02 -1.2112568942E+02  2.5817180236E+02  1.2896157000E+02 0. 9.
       1    1    3    0  101    0 -4.0851750346E+01 -3.5250530493E+01  1.4547525404E+02  1.5515999434E+02  3.3000000000E-01 0. 9.
      -1    1    3    0    0  103 -1.7094412521E+02 -5.3029717186E+02 -4.0973256492E+02  6.9160528344E+02  3.3000000000E-01 0. 9.
 1000022    1    4    0    0    0  3.1167611103E+02  6.5437822312E+02 -4.7256512090E+02  8.7481525885E+02  1.2896157000E+02 0. 9.
       2    1    4    0  103    0  4.3988704609E+01 -2.0987550594E+02 -8.3449735110E+02  8.6160818939E+02  3.3000000000E-01 0. 9.
</event>
<event>
    20   259  1.000000E+00  9.919325E+02  7.976505E-03  9.281573E-02
      21   -1    0    0  101  102  0.0000000000E+00  0.0000000000E+00  8.2614969174E+02  8.2614969174E+02  0.0000000000E+00 0. 9.
       2   -1    0    0  102    0  0.0000000000E+00  0.0000000000E+00 -1.2636126519E+03  1.2636126519E+03  0.0000000000E+00 0. 9.
 1000021    2    1    2  101  103  3.2888618018E+02  1.0141089220E+02  5.0825842901E+01  9.3237295240E+02  8.6503512500E+02 0. 9.
 2000002    2    1    2  103    0 -3.2888618018E+02 -1.0141089220E+02 -4.8828880306E+02  1.1573893912E+03  9.9129912700E+02 0. 9.
 1000024    2    3    0    0    0  1.0988697378E+02 -3.9842102662E+01  2.8586743278E+02  4.0958851684E+02  2.6903535800E+02 0. 9.
      -6    2    3    0    0  103  3.3650795198E+01 -5.3590317084E+01 -3.5252707802E+01  1.8773729387E+02  1.7320000000E+02 0. 9.
       5    1    3    0  101    0  1.8534841120E+02  1.9484331195E+02 -1.9978888208E+02  3.3504714168E+02  4.8000000000E+00 0. 9.
 1000021    2    4    0  103  104 -2.5571920800E+02 -1.4419234204E+02 -3.1815401044E+02  9.6731147346E+02  8.6503512500E+02 0. 9.
       2    1    4    0  104    0 -7.3166972180E+01  4.2781449836E+01 -1.7013479262E+02  1.9007791778E+02  3.3000000000E-01 0. 9.
 1000022    1    5    0    0    0  9.2725819319E+01 -6.3464395204E+01  8.4469012746E+01  1.9076663146E+02  1.2896157000E+02 0. 9.
      24    2    5    0    0    0  1.7161154459E+01  2.3622292542E+01  2.0139842004E+02  2.1882188539E+02  8.0431188000E+01 0. 9.
     -24    2    6    0    0    0  2.9884563109E+01 -2.2555780794E+01  4.6437956299E+01  1.0013745627E+02  8.0431188000E+01 0. 9.
      -5    1    6    0    0  103  3.7662320892E+00 -3.1034536290E+01 -8.1690664101E+01  8.7599837604E+01  4.8000000000E+00 0. 9.
 1000022    1    8    0    0    0 -5.1170254682E+01  1.7245904014E+02 -4.0192102829E+02  4.5883778725E+02  1.2896157000E+02 0. 9.
       2    1    8    0  103    0 -3.1799809440E+01 -2.3051211381E+02 -8.9274494512E+01  2.4923303706E+02  3.3000000000E-01 0. 9.
      -2    1    8    0    0  104 -1.7274914387E+02 -8.6139268368E+01  1.7304151237E+02  2.5924064914E+02  3.3000000000E-01 0. 9.
     -13    1   11    0    0    0  3.9595729191E+01  3.3002929851E+01  1.7708707704E+02  1.8443659931E+02  1.0566000000E-01 0. 9.
      14    1   11    0    0    0 -2.2434574733E+01 -9.3806373092E+00  2.4311342999E+01  3.4385286071E+01  0.0000000000E+00 0. 9.
       3    1   12    0  105    0 -2.5813343867E+01 -2.0078234534E+01  2.0745921280E+01  3.8731220913E+01  5.0000000000E-01 0. 9.
      -4    1   12    0    0  105  5.5697906977E+01 -2.4775462593E+00  2.5692035018E+01  6.1406235355E+01  1.5000000000E+00 0. 9.
</event>
<event>
    12   226  1.000000E+00  3.600464E+02  7.884747E-03  1.048496E-01
       3   -1    0    0  101    0  0.0000000000E+00  0.0000000000E+00  4.7093639526E+02  4.7093639526E+02  0.0000000000E+00 0. 9.
      -3   -1    0    0    0  101  0.0000000000E+00  0.0000000000E+00 -2.8980695235E+02  2.8980695235E+02  0.0000000000E+00 0. 9.
-1000024    2    1    2    0    0 -1.5227760405E+02 -1.8456682831E+02  1.7576288833E+02  4.0065695997E+02  2.6903535800E+02 0. 9.
 1000024    2    1    2    0    0  1.5227760405E+02  1.8456682831E+02  5.3665545789E+00  3.6008638765E+02  2.6903535800E+02 0. 9.
 1000022    1    3    0    0    0 -7.2829459946E+01 -1.4177149797E+02  2.3682167021E+01  2.0638609315E+02  1.2896157000E+02 0. 9.
     -24    2    3    0    0    0 -7.9448144100E+01 -4.2795330337E+01  1.5208072131E+02  1.9427086683E+02  8.0431188000E+01 0. 9.
 1000022    1    4    0    0    0  1.2300470172E+02  9.5592829734E+01 -7.1673837919E+01  2.1456088022E+02  1.2896157000E+02 0. 9.
      24    2    4    0    0    0  2.9272902330E+01  8.8973998572E+01  7.7040392498E+01  1.4552550743E+02  8.0431188000E+01 0. 9.
      11    1    6    0    0    0 -2.4750675391E+01 -3.9624371692E+01  1.2440517256E+02  1.3288842585E+02  5.1000000000E-04 0. 9.
     -12    1    6    0    0    0 -5.4697468709E+01 -3.1709586451E+00  2.7675548754E+01  6.1382440980E+01  0.0000000000E+00 0. 9.
      -1    1    8    0    0  102 -2.0716871247E+01  9.4212402128E+00  3.6897937674E+01  4.3353376178E+01  3.3000000000E-01 0. 9.
       2    1    8    0  102    0  4.9989773577E+01  7.9552758360E+01  4.0142454823E+01  1.0217213125E+02  3.3000000000E-01 0. 9.
</event>
<event>
     9   259  1.000000E+00  1.252396E+03  7.997919E-03  9.042790E-02
       2   -1    0    0  101    0  0.0000000000E+00  0.0000000000E+00  2.1126769460E+03  2.1126769460E+03  0.0000000000E+00 0. 9.
      21   -1    0    0  102  101  0.0000000000E+00  0.0000000000E+00 -7.7673755930E+02  7.7673755930E+02  0.0000000000E+00 0. 9.
 2000002    2    1    2  103    0  8.0917186724E+02 -2.1967664637E+02  3.8380821624E+02  1.3538831729E+03  9.9129912700E+02 0. 9.
 1000021    2    1    2  102  103 -8.0917186724E+02  2.1967664637E+02  9.5213117044E+02  1.5355313324E+03  8.6503512500E+02 0. 9.
 1000022    1    3    0    0    0  3.1309189902E+02 -5.8751077269E+02  1.5754770524E+02  6.9616651113E+02  1.2896157000E+02 0. 9.
       2    1    3    0  103    0  4.9607996822E+02  3.6783412633E+02  2.2626051101E+02  6.5771666172E+02  3.3000000000E-01 0. 9.
 1000022    1    4    0    0    0 -1.4861277020E+02 -1.8544791393E+02  3.1756301409E+02  4.1707797677E+02  1.2896157000E+02 0. 9.
       2    1    4    0  102    0 -2.2826593513E+01  2.4049702851E+02  2.8220450575E+02  3.7148265916E+02  3.3000000000E-01 0. 9.
      -2    1    4    0    0  103 -6.3773250353E+02  1.6462753179E+02  3.5236365060E+02  7.4697069651E+02  3.3000000000E-01 0. 9.
</event>
<event>
    12   230  1.000000E+00  2.915903E+02  7.865917E-03  1.077568E-01
       1   -1    0    0  101    0  0.0000000000E+00  0.0000000000E+00  1.9126309428E+02  1.9126309428E+02  0.0000000000E+00 0. 9.
      -2   -1    0    0    0  101  0.0000000000E+00  0.0000000000E+00 -4.4686319940E+02  4.4686319940E+02  0.0000000000E+00 0. 9.
 1000023    2    1    2    0    0 -9.7981095913E+01 -5.5524142870E+01 -1.0478643103E+02  3.0978498690E+02  2.6889276000E+02 0. 9.
-1000024    2    1    2    0    0  9.7981095913E+01  5.5524142870E+01 -1.5081367409E+02  3.2834130679E+02  2.6903535800E+02 0. 9.
 1000022    1    3    0    0    0 -8.6013258067E+00 -1.3320588005E+01 -5.7075656994E+01  1.4191595410E+02  1.2896157000E+02 0. 9.
      25    2    3    0    0    0 -8.9379770107E+01 -4.2203554865E+01 -4.7710774037E+01  1.6786903279E+02  1.2701893900E+02 0. 9.
 1000022    1    4    0    0    0  1.2715712548E+02  3.3841528083E+01 -4.3344475014E+01  1.8927232665E+02  1.2896157000E+02 0. 9.
     -24    2    4    0    0    0 -2.9176029565E+01  2.1682614787E+01 -1.0746919907E+02  1.3906898014E+02  8.0431188000E+01 0. 9.
       5    1    6    0  102    0 -9.9010649180E+00  3.2260094103E+01 -4.7976254311E+01  5.8851556783E+01  4.8000000000E+00 0. 9.
      -5    1    6    0    0  102 -7.9478705189E+01 -7.4463648968E+01  2.6548027466E-01  1.0901747601E+02  4.8000000000E+00 0. 9.
       1    1    8    0  103    0  1.4580453526E+01  3.5074537142E+01 -7.1117627386E+01  8.0626537851E+01  3.3000000000E-01 0. 9.
      -2    1    8    0    0  103 -4.3756483091E+01 -1.3391922355E+01 -3.6351571689E+01  5.8442442292E+01  3.3000000000E-01 0. 9.
</event>
<event>
    17   258  1.000000E+00  9.592216E+02  7.973435E-03  9.316956E-02
       2   -1    0    0  101    0  0.0000000000E+00  0.0000000000E+00  1.2964142548E+03  1.2964142548E+03  0.0000000000E+00 0. 9.
      21   -1    0    0  102  101  0.0000000000E+00  0.0000000000E+00 -7.3747154930E+02  7.3747154930E+02  0.0000000000E+00 0. 9.
 1000002    2    1    2  103    0  1.8666091209E+02 -1.3992291974E+02  5.0350911436E+02  1.1362336610E+03  9.9150632100E+02 0. 9.
 1000021    2    1    2  102  103 -1.8666091209E+02  1.3992291974E+02  5.5433591188E+01  8.9765214314E+02  8.6503512500E+02 0. 9.
 1000024    2    3    0    0    0  3.1645285693E+02  2.1639334205E+02 -4.3794168410E+01  4.7038967057E+02  2.6903535800E+02 0. 9.
       1    1    3    0  103    0 -1.2979194484E+02 -3.5631626179E+02  5.4730328277E+02  6.6584399043E+02  3.3000000000E-01 0. 9.
-1000024    2    4    0    0    0 -1.6447421259E+02 -9.9813733307E+01 -1.1218075010E+02  3.4925505367E+02  2.6903535800E+02 0. 9.
       4    1    4    0  102    0  1.5846112523E+02  1.2635629089E+02 -8.3261817771E+01  2.1911326011E+02  1.5000000000E+00 0. 9.
      -3    1    4    0    0  103 -1.8064782473E+02  1.1338036216E+02  2.5087615906E+02  3.2928382937E+02  5.0000000000E-01 0. 9.
 1000022    1    5    0    0    0  8.9497109678E+01  1.2281179232E+02  3.0402812605E+01  2.0161321019E+02  1.2896157000E+02 0. 9.
      24    2    5    0    0    0  2.2695574725E+02  9.3581549730E+01 -7.4196981014E+01  2.6877646038E+02  8.0431188000E+01 0. 9.
 1000022    1    7    0    0    0 -5.5527710615E+01 -1.0038447055E+02  1.2470373077E+00  1.7260651845E+02  1.2896157000E+02 0. 9.
     -24    2    7    0    0    0 -1.0894650198E+02  5.7073724280E-01 -1.1342778740E+02  1.7664853521E+02  8.0431188000E+01 0. 9.
     -15    1   11    0    0    0  7.2966111721E+01 -7.6418214169E+00 -2.9924499773E+01  7.9253292107E+01  1.7770000000E+00 0. 9.
      16    1   11    0    0    0  1.5398963553E+02  1.0122337115E+02 -4.4272481241E+01  1.8952316827E+02  0.0000000000E+00 0. 9.
      11    1   13    0    0    0 -8.6083912124E+01  3.0820467190E+01 -5.4106608459E+01  1.0624437022E+02  5.1000000000E-04 0. 9.
     -12    1   13    0    0    0 -2.2862589853E+01 -3.0249729947E+01 -5.9321178946E+01  7.0404164992E+01  0.0000000000E+00 0. 9.
</event>
<event>
    18   244  1.000000E+00  9.982231E+02  7.977084E-03  9.274932E-02
      21   -1    0    0  101  102  0.0000000000E+00  0.0000000000E+00  1.2905314458E+03  1.2905314458E+03  0.0000000000E+00 0. 9.
      21   -1    0    0  103  104  0.0000000000E+00  0.0000000000E+00 -8.1280818894E+02  8.1280818894E+02  0.0000000000E+00 0. 9.
 1000021    2    1    2  103  102  4.5596391898E+02 -2.0064995833E+02  3.5721646629E+00  9.9822944709E+02  8.6503512500E+02 0. 9.
 1000021    2    1    2  101  104 -4.5596391898E+02  2.0064995833E+02  4.7415109225E+02  1.1051101877E+03  8.6503512500E+02 0. 9.
-1000024    2    3    0    0    0  5.4587285794E+02 -2.5067640784E+02 -9.5248104072E+01  6.6503237791E+02  2.6903535800E+02 0. 9.
       2    1    3    0  103    0  8.0496468201E+01 -1.0786818037E+01  1.2633113715E+02  1.5018555839E+02  3.3000000000E-01 0. 9.
      -1    1    3    0    0  102 -1.7040540716E+02  6.0813267550E+01 -2.7510868416E+01  1.8301151079E+02  3.3000000000E-01 0. 9.
 1000024    2    4    0    0    0 -1.8066486777E+02  1.8630566966E+01  2.1588430998E+02  3.8983708344E+02  2.6903535800E+02 0. 9.
      -2    1    4    0    0  104 -1.6735567594E+02  7.2011306844E-01  4.1824252634E+02  4.5048347425E+02  3.3000000000E-01 0. 9.
       1    1    4    0  101    0 -1.0794337527E+02  1.8129927829E+02 -1.5997574407E+02  2.6478963002E+02  3.3000000000E-01 0. 9.
 1000022    1    5    0    0    0  1.8545216563E+02 -1.4209527224E+02  6.3329289032E+00  2.6693588117E+02  1.2896157000E+02 0. 9.
     -24    2    5    0    0    0  3.6042069231E+02 -1.0858113560E+02 -1.0158103297E+02  3.9809649674E+02  8.0431188000E+01 0. 9.
 1000022    1    8    0    0    0 -6.0047732785E+01 -4.3773675809E+01  4.1257078504E+01  1.5445095652E+02  1.2896157000E+02 0. 9.
      24    2    8    0    0    0 -1.2061713499E+02  6.2404242775E+01  1.7462723147E+02  2.3538612692E+02  8.0431188000E+01 0. 9.
      15    1   12    0    0    0  1.5755528378E+02 -8.8144741804E+01 -3.7777636205E+01  1.8445452144E+02  1.7770000000E+00 0. 9.
     -16    1   12    0    0    0  2.0286540853E+02 -2.0436393798E+01 -6.3803396770E+01  2.1364197530E+02  0.0000000000E+00 0. 9.
      -3    1   14    0    0  105 -3.7644529024E+01 -1.2050359562E+01  7.9671801284E+01  8.8939123286E+01  5.0000000000E-01 0. 9.
       4    1   14    0  105    0 -8.2972605964E+01  7.4454602337E+01  9.4955430189E+01  1.4644700363E+02  1.5000000000E+00 0. 9.
</event>
<event>
    12   226  1.000000E+00  2.701583E+02  7.859123E-03  1.088494E-01
      -2   -1    0    0    0  101  0.0000000000E+00  0.0000000000E+00  9.6768546163E+02  9.6768546163E+02  0.0000000000E+00 0. 9.
       2   -1    0    0  101    0  0.0000000000E+00  0.0000000000E+00 -9.1029468585E+01  9.1029468585E+01  0.0000000000E+00 0. 9.
-1000024    2    1    2    0    0 -6.9513204231E+00 -2.3604017021E+01  2.1914144692E+02  3.4786271443E+02  2.6903535800E+02 0. 9.
 1000024    2    1    2    0    0  6.9513204231E+00  2.3604017021E+01  6.5751454612E+02  7.1085221579E+02  2.6903535800E+02 0. 9.
 1000022    1    3    0    0    0 -3.3547123488E+01 -4.0158887925E+01  3.3519600302E+01  1.4315305067E+02  1.2896157000E+02 0. 9.
     -24    2    3    0    0    0  2.6595803065E+01  1.6554870904E+01  1.8562184662E+02  2.0470966376E+02  8.0431188000E+01 0. 9.
 1000022    1    4    0    0    0  2.9141940860E+01 -2.6387205761E+01  5.4817421772E+02  5.6451005027E+02  1.2896157000E+02 0. 9.
      24    2    4    0    0    0 -2.2190620436E+01  4.9991222783E+01  1.0934032840E+02  1.4634216552E+02  8.0431188000E+01 0. 9.
       3    1    6    0  102    0  3.3289189597E+01 -2.4106291612E+01  6.1964522875E+01  7.4358157148E+01  5.0000000000E-01 0. 9.
      -4    1    6    0    0  102 -6.6933865326E+00  4.0661162516E+01  1.2365732375E+02  1.3035150661E+02  1.5000000000E+00 0. 9.
      -1    1    8    0    0  103  2.1042020535E+01 -8.1020659231E+00  4.0887922145E+01  4.6694123589E+01  3.3000000000E-01 0. 9.
       2    1    8    0  103    0 -4.3232640972E+01  5.8093288706E+01  6.8452406255E+01  9.9648041928E+01  3.3000000000E-01 0. 9.
</event>
<event>
    16   271  1.000000E+00  1.023162E+03  7.979346E-03  9.249103E-02
       1   -1    0    0  101    0  0.0000000000E+00  0.0000000000E+00  7.8236246391E+02  7.8236246391E+02  0.0000000000E+00 0. 9.
       1   -1    0    0  102    0  0.0000000000E+00  0.0000000000E+00 -1.6005278696E+03  1.6005278696E+03  0.0000000000E+00 0. 9.
 1000001    2    1    2  102    0 -2.3922817269E+02  3.0984740075E+01  7.3383525622E+01  1.0257903852E+03  9.9431916400E+02 0. 9.
 1000001    2    1    2  101    0  2.3922817269E+02 -3.0984740075E+01 -8.9154893127E+02  1.3570999482E+03  9.9431916400E+02 0. 9.
-1000024    2    3    0    0    0  8.1688963221E+01 -2.6050971496E+02  3.4374447365E+02  5.1485792732E+02  2.6903535800E+02 0. 9.
       2    1    3    0  102    0 -3.2091713591E+02  2.9149445504E+02 -2.7036094803E+02  5.1093245792E+02  3.3000000000E-01 0. 9.
-1000024    2    4    0    0    0  2.7484000876E+02  4.2073371519E+02 -5.0000688959E+02  7.5824851005E+02  2.6903535800E+02 0. 9.
       2    1    4    0  101    0 -3.5611836071E+01 -4.5171845526E+02 -3.9154204168E+02  5.9885143817E+02  3.3000000000E-01 0. 9.
 1000022    1    5    0    0    0  4.6643019983E+01 -8.3422223679E+01  6.5037505002E+01  1.7319296265E+02  1.2896157000E+02 0. 9.
     -24    2    5    0    0    0  3.5045943238E+01 -1.7708749128E+02  2.7870696865E+02  3.4166496467E+02  8.0431188000E+01 0. 9.
 1000022    1    7    0    0    0  1.8505454220E+02  2.2448322253E+02 -3.8898446683E+02  5.0257129122E+02  1.2896157000E+02 0. 9.
     -24    2    7    0    0    0  8.9785466559E+01  1.9625049266E+02 -1.1102242276E+02  2.5567721884E+02  8.0431188000E+01 0. 9.
       3    1   10    0  103    0  2.2253654127E+01 -1.8162848912E+02  2.4937375023E+02  3.0930834209E+02  5.0000000000E-01 0. 9.
      -4    1   10    0    0  103  1.2792289110E+01  4.5409978372E+00  2.9333218416E+01  3.2356622579E+01  1.5000000000E+00 0. 9.
       1    1   12    0  104    0  5.3878188638E+01  1.8428017747E+02 -9.8640797432E+01  2.1585216894E+02  3.3000000000E-01 0. 9.
      -2    1   12    0    0  104  3.5907277921E+01  1.1970315189E+01 -1.2381625329E+01  3.9825049895E+01  3.3000000000E-01 0. 9.
</event>
<event>
    12   230  1.000000E+00  3.541337E+02  7.883265E-03  1.050722E-01
       2   -1    0    0  101    0  0.0000000000E+00  0.0000000000E+00  2.1751001447E+02  2.1751001447E+02  0.0000000000E+00 0. 9.
      -1   -1    0    0    0  101  0.0000000000E+00  0.0000000000E+00 -5.7919394390E+02  5.7919394390E+02  0.0000000000E+00 0. 9.
 1000024    2    1    2    0    0 -5.1530488506E+01 -2.2452970156E+02 -1.5407836649E+02  3.8625010680E+02  2.6903535800E+02 0. 9.
 1000023    2    1    2    0    0  5.1530488506E+01  2.2452970156E+02 -2.0760556293E+02  4.1045385157E+02  2.6889276000E+02 0. 9.
 1000022    1    3    0    0    0 -5.4463752899E+01 -1.5019272459E+02 -1.0421501200E+01  2.0558173344E+02  1.2896157000E+02 0. 9.
      24    2    3    0    0    0  2.9332643931E+00 -7.4336976977E+01 -1.4365686529E+02  1.8066837337E+02  8.0431188000E+01 0. 9.
 1000022    1    4    0    0    0  1.0811895396E+01  7.8427150387E+01 -1.2416674418E+02  1.9574519636E+02  1.2896157000E+02 0. 9.
      25    2    4    0    0    0  4.0718593110E+01  1.4610255118E+02 -8.3438818755E+01  2.1470865522E+02  1.2701893900E+02 0. 9.
      -1    1    6    0    0  102 -8.3144488908E+00 -8.1721086947E+01 -7.6744118049E+01  1.1241545564E+02  3.3000000000E-01 0. 9.
       2    1    6    0  102    0  1.1247713284E+01  7.3841099698E+00 -6.6912747244E+01  6.8252917724E+01  3.3000000000E-01 0. 9.
      21    1    8    0  103  104 -2.4105020326E+01  8.1472316868E+01 -8.8946693321E+01  1.2300530344E+02  0.0000000000E+00 0. 9.
      21    1    8    0  104  103  6.4823613435E+01  6.4630234307E+01  5.5078745660E+00  9.1703351780E+01  0.0000000000E+00 0. 9.
</event>
<event>
    12   226  1.000000E+00  3.039875E+02  7.869628E-03  1.071701E-01
      -4   -1    0    0    0  101  0.0000000000E+00  0.0000000000E+00  3.1453152062E+02  3.1453152062E+02  0.0000000000E+00 0. 9.
       4   -1    0    0  101    0  0.0000000000E+00  0.0000000000E+00 -3.1299901157E+02  3.1299901157E+02  0.0000000000E+00 0. 9.
-1000024    2    1    2    0    0 -1.2360248378E+02  6.8926188276E+01  7.8481592803E+01  3.1395505680E+02  2.6903535800E+02 0. 9.
 1000024    2    1    2    0    0  1.2360248378E+02 -6.8926188276E+01 -7.6949083755E+01  3.1357547540E+02  2.6903535800E+02 0. 9.
 1000022    1    3    0    0    0 -9.7033643319E-01  8.3289974272E+01  6.2412270285E+01  1.6572428725E+02  1.2896157000E+02 0. 9.
     -24    2    3    0    0    0 -1.2263214734E+02 -1.4363785997E+01  1.6069322518E+01  1.4823076954E+02  8.0431188000E+01 0. 9.
 1000022    1    4    0    0    0  1.5508082649E+02 -5.4688604924E+01 -2.1795388072E+01  2.1011195047E+02  1.2896157000E+02 0. 9.
      24    2    4    0    0    0 -3.1478342712E+01 -1.4237583351E+01 -5.5153695684E+01  1.0346352493E+02  8.0431188000E+01 0. 9.
       3    1    6    0  102    0 -1.2264689054E+02 -2.7901132393E+01 -1.7606288604E+00  1.2579381050E+02  5.0000000000E-01 0. 9.
      -4    1    6    0    0  102  1.4743193011E-02  1.3537346396E+01  1.7829951378E+01  2.2436959040E+01  1.5000000000E+00 0. 9.
      -1    1    8    0    0  103 -1.9338110091E+01  2.6608206586E+00 -7.3298551226E+01  7.5853997788E+01  3.3000000000E-01 0. 9.
       2    1    8    0  103    0 -1.2140232621E+01 -1.6898404010E+01  1.8144855543E+01  2.7609527139E+01  3.3000000000E-01 0. 9.
</event>
<event>
    12   230  1.000000E+00  2.992433E+02  7.868226E-03  1.073910E-01
      -1   -1    0    0    0  101  0.0000000000E+00  0.0000000000E+00  2.2732903174E+02  2.2732903174E+02  0.0000000000E+00 0. 9.
       2   -1    0    0  101    0  0.0000000000E+00  0.0000000000E+00 -3.9697889900E+02  3.9697889900E+02  0.0000000000E+00 0. 9.
 1000023    2    1    2    0    0 -1.2747578973E+02 -3.0900096741E+01 -1.1226493402E+02  3.1954909597E+02  2.6889276000E+02 0. 9.
 1000024    2    1    2    0    0  1.2747578973E+02  3.0900096741E+01 -5.7384933241E+01  3.0475883476E+02  2.6903535800E+02 0. 9.
 1000022    1    3    0    0    0 -5.9896018592E+01 -2.9242236042E+01 -9.7576356803E+01  1.7491390269E+02  1.2896157000E+02 0. 9.
      25    2    3    0    0    0 -6.7579771139E+01 -1.6578606992E+00 -1.4688577216E+01  1.4463519328E+02  1.2701893900E+02 0. 9.
 1000022    1    4    0    0    0  8.3051119013E+01  8.9584002166E+01  7.6698241092E+00  1.7779959098E+02  1.2896157000E+02 0. 9.
      24    2    4    0    0    0  4.4424670718E+01 -5.8683905424E+01 -6.5054757351E+01  1.2695924378E+02  8.0431188000E+01 0. 9.
       5    1    6    0  102    0 -6.0500611388E+01 -5.9062978497E+01 -1.7707449552E+01  8.6517935580E+01  4.8000000000E+00 0. 9.
      -5    1    6    0    0  102 -7.0791597505E+00  5.7405117798E+01  3.0188723363E+00  5.8117257698E+01  4.8000000000E+00 0. 9.
      -1    1    8    0    0  103  3.4313948271E+01 -7.6734061198E+01 -3.6365486999E+01  9.1586684286E+01  3.3000000000E-01 0. 9.
       2    1    8    0  103    0  1.0110722448E+01  1.8050155774E+01 -2.8689270351E+01  3.5372559494E+01  3.3000000000E-01 0. 9.
</event>
<event>
    12   226  1.000000E+00  2.902815E+02  7.865517E-03  1.078206E-01
      -1   -1    0    0    0  101  0.0000000000E+00  0.0000000000E+00  1.7778825414E+02  1.7778825414E+02  0.0000000000E+00 0. 9.
       1   -1    0    0  101    0  0.0000000000E+00  0.0000000000E+00 -5.2321008919E+02  5.2321008919E+02  0.0000000000E+00 0. 9.
 1000024    2    1    2    0    0  2.5247769154E+01  1.0604649707E+02 -6.5167977815E+01  2.9750663619E+02  2.6903535800E+02 0. 9.
-1000024    2    1    2    0    0 -2.5247769154E+01 -1.0604649707E+02 -2.8025385723E+02  4.0349170714E+02  2.6903535800E+02 0. 9.
 1000022    1    3    0    0    0 -2.8293418770E+00 -1.2599298181E+01 -7.7355845861E+01  1.5093628098E+02  1.2896157000E+02 0. 9.
      24    2    3    0    0    0  2.8077111031E+01  1.1864579525E+02  1.2187868046E+01  1.4657035521E+02  8.0431188000E+01 0. 9.
 1000022    1    4    0    0    0  1.0265218199E+01 -1.0369313211E+02 -2.6736369546E+02  3.1459827167E+02  1.2896157000E+02 0. 9.
     -24    2    4    0    0    0 -3.5512987353E+01 -2.3533649657E+00 -1.2890161772E+01  8.8893435477E+01  8.0431188000E+01 0. 9.
     -11    1    6    0    0    0 -1.7852695718E+01  8.7889913544E+01 -1.2124159917E+00  8.9692951786E+01  5.1000000000E-04 0. 9.
      12    1    6    0    0    0  4.5929806749E+01  3.0755881708E+01  1.3400284038E+01  5.6877403421E+01  0.0000000000E+00 0. 9.
      11    1    8    0    0    0 -2.1008708770E+01  2.6150254944E+01  2.3113721825E+01  4.0736296036E+01  5.1000000000E-04 0. 9.
     -12    1    8    0    0    0 -1.4504278583E+01 -2.8503619910E+01 -3.6003883597E+01  4.8157139442E+01  0.0000000000E+00 0. 9.
</event>
<event>
    12   230  1.000000E+00  3.209519E+02  7.874473E-03  1.064144E-01
       2   -1    0    0  101    0  0.0000000000E+00  0.0000000000E+00  1.8975770664E+03  1.8975770664E+03  0.0000000000E+00 0. 9.
      -1   -1    0    0    0  101  0.0000000000E+00  0.0000000000E+00 -5.4398121143E+01  5.4398121143E+01  0.0000000000E+00 0. 9.
 1000024    2    1    2    0    0 -1.7485677916E+02 -9.6736507098E+00  9.6624982037E+02  1.0181783792E+03  2.6903535800E+02 0. 9.
 1000023    2    1    2    0    0  1.7485677916E+02  9.6736507098E+00  8.7692912488E+02  9.3379680829E+02  2.6889276000E+02 0. 9.
 1000022    1    3    0    0    0 -1.4487318256E+02 -7.6549532077E+01  5.5838703708E+02  5.9604969558E+02  1.2896157000E+02 0. 9.
      24    2    3    0    0    0 -2.9983596607E+01  6.6875881368E+01  4.0786278330E+02  4.2212868367E+02  8.0431188000E+01 0. 9.
 1000022    1    4    0    0    0  1.1578625655E+02 -5.2006411226E+01  3.7246708785E+02  4.1409412225E+02  1.2896157000E+02 0. 9.
      23    2    4    0    0    0  5.9070522611E+01  6.1680061935E+01  5.0446203703E+02  5.1970268604E+02  9.1187600000E+01 0. 9.
      -1    1    6    0    0  102 -3.9598534968E+01  8.9880391866E+00  8.7862529909E+01  9.6792364792E+01  3.3000000000E-01 0. 9.
       2    1    6    0  102    0  9.6149383607E+00  5.7887842181E+01  3.2000025339E+02  3.2533631888E+02  3.3000000000E-01 0. 9.
       5    1    8    0  103    0  5.4263904804E+01  8.1528469883E-01  3.3737056392E+02  3.4174138388E+02  4.8000000000E+00 0. 9.
      -5    1    8    0    0  103  4.8066178064E+00  6.0864777237E+01  1.6709147311E+02  1.7796130216E+02  4.8000000000E+00 0. 9.
</event>
<event>
    12   226  1.000000E+00  2.737011E+02  7.860282E-03  1.086614E-01
       1   -1    0    0  101    0  0.0000000000E+00  0.0000000000E+00  7.2843351352E+02  7.2843351352E+02  0.0000000000E+00 0. 9.
      -1   -1    0    0    0  101  0.0000000000E+00  0.0000000000E+00 -1.8477387217E+02  1.8477387217E+02  0.0000000000E+00 0. 9.
-1000024    2    1    2    0    0 -4.3702184404E+01  2.4947754095E+01 -3.2223799382E+01  2.7559148836E+02  2.6903535800E+02 0. 9.
 1000024    2    1    2    0    0  4.3702184404E+01 -2.4947754095E+01  5.7588344074E+02  6.3761589733E+02  2.6903535800E+02 0. 9.
 1000022    1    3    0    0    0 -7.3254810825E+01 -2.3046289752E+01 -7.5794652967E+01  1.6814670599E+02  1.2896157000E+02 0. 9.
     -24    2    3    0    0    0  2.9552626421E+01  4.7994043847E+01  4.3570853586E+01  1.0744478237E+02  8.0431188000E+01 0. 9.
 1000022    1    4    0    0    0  5.7171777211E+01 -9.1749410795E+01  3.5237845639E+02  3.9049741300E+02  1.2896157000E+02 0. 9.
      24    2    4    0    0    0 -1.3469592808E+01  6.6801656700E+01  2.2350498434E+02  2.4711848433E+02  8.0431188000E+01 0. 9.
       3    1    6    0  102    0 -9.4576320895E+00  5.2584781328E+01  7.2410576378E+00  5.3919281780E+01  5.0000000000E-01 0. 9.
      -4    1    6    0    0  102  3.9010258511E+01 -4.5907374808E+00  3.6329795948E+01  5.3525500589E+01  1.5000000000E+00 0. 9.
      -1    1    8    0    0  103 -3.7511734412E+01  7.1224940070E+01  1.8078558594E+02  1.9789810330E+02  3.3000000000E-01 0. 9.
       2    1    8    0  103    0  2.4042141604E+01 -4.4232833705E+00  4.2719398401E+01  4.9220381027E+01  3.3000000000E-01 0. 9.
</event>
<event>
    19   271  1.000000E+00  1.281952E+03  8.000068E-03  9.019577E-02
       1   -1    0    0  101    0  0.0000000000E+00  0.0000000000E+00  1.7814776226E+03  1.7814776226E+03  0.0000000000E+00 0. 9.
       2   -1    0    0  102    0  0.0000000000E+00  0.0000000000E+00 -1.0046532561E+03  1.0046532561E+03  0.0000000000E+00 0. 9.
 1000001    2    1    2  102    0  2.4607426569E+02  7.7263833947E+02  7.8709431211E+02  1.5052277581E+03  9.9431916400E+02 0. 9.
 1000002    2    1    2  101    0 -2.4607426569E+02 -7.7263833947E+02 -1.0269945597E+01  1.2809031205E+03  9.9150632100E+02 0. 9.
 1000021    2    3    0  102  103  9.3108792537E+01  6.4095749815E+02  6.4673144564E+02  1.2593820278E+03  8.6503512500E+02 0. 9.
       1    1    3    0  103    0  1.5296547315E+02  1.3168084132E+02  1.4036286646E+02  2.4584573035E+02  3.3000000000E-01 0. 9.
 1000024    2    4    0    0    0 -2.7280521230E+02 -9.8571657896E+02  4.7139153220E+01  1.0586132351E+03  2.6903535800E+02 0. 9.
       1    1    4    0  101    0  2.6730946611E+01  2.1307823948E+02 -5.7409098818E+01  2.2228988546E+02  3.3000000000E-01 0. 9.
-1000024    2    5    0    0    0  1.9570970697E+02  9.1742431939E+01 -4.3546750947E+01  3.4784379625E+02  2.6903535800E+02 0. 9.
       2    1    5    0  102    0  3.0623290004E+00  2.6932996995E+02  4.6370948552E+02  5.3625983109E+02  3.3000000000E-01 0. 9.
      -1    1    5    0    0  103 -1.0566324343E+02  2.7988509626E+02  2.2656871107E+02  3.7527840046E+02  3.3000000000E-01 0. 9.
 1000022    1    7    0    0    0 -4.2220878629E+01 -3.4444453067E+02 -7.0609215272E+00  3.7027770720E+02  1.2896157000E+02 0. 9.
      24    2    7    0    0    0 -2.3058433367E+02 -6.4127204829E+02  5.4200074748E+01  6.8833552789E+02  8.0431188000E+01 0. 9.
 1000022    1    9    0    0    0  2.6228804824E+01  5.1730545027E+00  1.6383631638E+01  1.3271857676E+02  1.2896157000E+02 0. 9.
     -24    2    9    0    0    0  1.6948090214E+02  8.6569377437E+01 -5.9930382585E+01  2.1512521949E+02  8.0431188000E+01 0. 9.
      -1    1   13    0    0  104 -8.2535902396E+01 -2.8293945594E+02  5.9068066206E+01  3.0059284133E+02  3.3000000000E-01 0. 9.
       2    1   13    0  104    0 -1.4804843128E+02 -3.5833259235E+02 -4.8679914587E+00  3.8774268656E+02  3.3000000000E-01 0. 9.
      11    1   15    0    0    0 -4.6061674640E+00  8.1546759063E+00 -1.7025616362E+01  1.9431601340E+01  5.1000000000E-04 0. 9.
     -12    1   15    0    0    0  1.7408706961E+02  7.8414701530E+01 -4.2904766223E+01  1.9569361815E+02  0.0000000000E+00 0. 9.
</event>
<event>
    16   259  1.000000E+00  9.802646E+02  7.975422E-03  9.294027E-02
      21   -1    0    0  101  102  0.0000000000E+00  0.0000000000E+00  1.2633719913E+03  1.2633719913E+03  0.0000000000E+00 0. 9.
       2   -1    0    0  102    0  0.0000000000E+00  0.0000000000E+00 -8.2093651897E+02  8.2093651897E+02  0.0000000000E+00 0. 9.
 1000021    2    1    2  101  103  1.0271182574E+02  2.9135737702E+02  4.9732491934E+02  1.0445365878E+03  8.6503512500E+02 0. 9.
 2000002    2    1    2  103    0 -1.0271182574E+02 -2.9135737702E+02 -5.4889447000E+01  1.0397719225E+03  9.9129912700E+02 0. 9.
 1000022    1    3    0    0    0  2.7487050852E+02  6.1537603557E+01  1.5374178952E+02  3.4584432551E+02  1.2896157000E+02 0. 9.
       2    1    3    0  101    0  6.3968643590E+01  2.8061193190E+02  1.1469127883E+01  2.8803939571E+02  3.3000000000E-01 0. 9.
      -2    1    3    0    0  103 -2.3612732637E+02 -5.0792158436E+01  3.3211400194E+02  4.1065286655E+02  3.3000000000E-01 0. 9.
 1000021    2    4    0  103  104 -1.1307518187E+02 -1.7609282822E+02  3.8856160261E+01  8.9083682545E+02  8.6503512500E+02 0. 9.
       2    1    4    0  104    0  1.0363356128E+01 -1.1526454880E+02 -9.3745607260E+01  1.4893509708E+02  3.3000000000E-01 0. 9.
 1000024    2    8    0    0    0 -1.2347821527E+02 -1.0871385145E+02 -3.4853032996E+01  3.1727011978E+02  2.6903535800E+02 0. 9.
      -2    1    8    0    0  104  2.2208411132E+02 -5.8427151401E+01  2.1847252865E+02  3.1696283567E+02  3.3000000000E-01 0. 9.
       1    1    8    0  103    0 -2.1168107791E+02 -8.9518253692E+00 -1.4476333540E+02  2.5660387000E+02  3.3000000000E-01 0. 9.
 1000022    1   10    0    0    0  1.2276988838E+01 -1.1681115685E+01 -1.6845580349E+01  1.3115652112E+02  1.2896157000E+02 0. 9.
      24    2   10    0    0    0 -1.3575520411E+02 -9.7032735762E+01 -1.8007452647E+01  1.8611359866E+02  8.0431188000E+01 0. 9.
      -1    1   14    0    0  105 -1.4577814031E+02 -9.1610327677E+01 -2.2933339093E+01  1.7369445953E+02  3.3000000000E-01 0. 9.
       2    1   14    0  105    0  1.0022936199E+01 -5.4224080854E+00  4.9258864469E+00  1.2419139132E+01  3.3000000000E-01 0. 9.
</event>
<event>
    17   254  1.000000E+00  7.384126E+02  7.949562E-03  9.602555E-02
       2   -1    0    0  101    0  0.0000000000E+00  0.0000000000E+00  1.0269106100E+03  1.0269106100E+03  0.0000000000E+00 0. 9.
      21   -1    0    0  102  101  0.0000000000E+00  0.0000000000E+00 -5.4912230804E+02  5.4912230804E+02  0.0000000000E+00 0. 9.
 1000001    2    1    2  102    0 -1.0468734157E+02  6.1387463168E+01 -1.4784184677E+01  1.0018068837E+03  9.9431916400E+02 0. 9.
 1000024    2    1    2    0    0  1.0468734157E+02 -6.1387463168E+01  4.9257248668E+02  5.7422603442E+02  2.6903535800E+02 0. 9.
 1000021    2    3    0  102  103 -1.3372912302E+02  7.1989533554E+01  9.9063490314E+01  8.8383556948E+02  8.6503512500E+02 0. 9.
       1    1    3    0  103    0  2.9041781451E+01 -1.0602070386E+01 -1.1384767499E+02  1.1797131417E+02  3.3000000000E-01 0. 9.
 1000022    1    4    0    0    0  9.0476406734E+01  8.8511939295E+00  4.0743598518E+02  4.3692046458E+02  1.2896157000E+02 0. 9.
      24    2    4    0    0    0  1.4210934838E+01 -7.0238657097E+01  8.5136501501E+01  1.3730556985E+02  8.0431188000E+01 0. 9.
 1000023    2    5    0    0    0 -1.5227144739E+01  2.6246129678E+02  2.3043464524E+02  4.4104562162E+02  2.6889276000E+02 0. 9.
       4    1    5    0  102    0  2.8480776208E+01  7.9879942424E+01 -1.0348218664E+02  1.3380124352E+02  1.5000000000E+00 0. 9.
      -4    1    5    0    0  103 -1.4698275449E+02 -2.7035170565E+02 -2.7888968285E+01  3.0898870435E+02  1.5000000000E+00 0. 9.
      -3    1    8    0    0  104  4.6601831603E+01 -5.0754072602E+01  4.5845200581E+01  8.2763150078E+01  5.0000000000E-01 0. 9.
       4    1    8    0  104    0 -3.2390896765E+01 -1.9484584495E+01  3.9291300920E+01  5.4542419768E+01  1.5000000000E+00 0. 9.
 1000022    1    9    0    0    0 -4.6864343923E+01  1.4979217636E+02  1.3189781135E+02  2.4220256400E+02  1.2896157000E+02 0. 9.
      25    2    9    0    0    0  3.1637199184E+01  1.1266912042E+02  9.8536833882E+01  1.9884305762E+02  1.2701893900E+02 0. 9.
       5    1   15    0  105    0  6.1327137673E+01  1.1057609683E+01  1.5980019897E+01  6.4511158592E+01  4.8000000000E+00 0. 9.
      -5    1   15    0    0  105 -2.9689938488E+01  1.0161151074E+02  8.2556813985E+01  1.3433189903E+02  4.8000000000E+00 0. 9.
</event>
<event>
    20   264  1.000000E+00  1.140334E+03  7.989296E-03  9.137297E-02
      21   -1    0    0  101  102  0.0000000000E+00  0.0000000000E+00  1.5754345366E+03  1.5754345366E+03  0.0000000000E+00 0. 9.
      21   -1    0    0  103  101  0.0000000000E+00  0.0000000000E+00 -1.0839806914E+03  1.0839806914E+03  0.0000000000E+00 0. 9.
-1000006    2    1    2    0  102 -2.3491404178E+02  6.8895595428E+02 -4.0372200517E+02  1.2096909391E+03  8.7779029200E+02 0. 9.
 1000006    2    1    2  103    0  2.3491404178E+02 -6.8895595428E+02  8.9517585036E+02  1.4497242889E+03  8.7779029200E+02 0. 9.
-1000024    2    3    0    0    0 -5.2525055065E+02  3.3598024409E+02 -1.9023194601E+02  7.0522271838E+02  2.6903535800E+02 0. 9.
      -5    1    3    0    0  102  2.9033650887E+02  3.5297571018E+02 -2.1349005916E+02  5.0446822072E+02  4.8000000000E+00 0. 9.
 1000023    2    4    0    0    0  2.9412652683E+02  2.1640959423E+01  2.3805611330E+02  4.6470719208E+02  2.6889276000E+02 0. 9.
       6    2    4    0  103    0 -5.9212485054E+01 -7.1059691370E+02  6.5711973706E+02  9.8501709680E+02  1.7320000000E+02 0. 9.
 1000022    1    5    0    0    0 -2.1683177339E+02  1.1494852881E+02 -9.7344127797E+00  2.7740769196E+02  1.2896157000E+02 0. 9.
     -24    2    5    0    0    0 -3.0841877726E+02  2.2103171528E+02 -1.8049753323E+02  4.2781502642E+02  8.0431188000E+01 0. 9.
 1000022    1    7    0    0    0  1.4807632118E+02  5.0788930591E+01  1.0907151664E+02  2.3029067425E+02  1.2896157000E+02 0. 9.
      25    2    7    0    0    0  1.4605020565E+02 -2.9147971168E+01  1.2898459666E+02  2.3441651784E+02  1.2701893900E+02 0. 9.
      24    2    8    0    0    0  8.3479722965E+00 -4.9467475597E+02  5.1012119723E+02  7.1516824223E+02  8.0431188000E+01 0. 9.
       5    1    8    0  103    0 -6.7560457350E+01 -2.1592215773E+02  1.4699853984E+02  2.6984885457E+02  4.8000000000E+00 0. 9.
       1    1   10    0  104    0 -5.8374399803E+01  7.3054486212E+01 -7.0618143426E+01  1.1718173744E+02  3.3000000000E-01 0. 9.
      -2    1   10    0    0  104 -2.5004437746E+02  1.4797722907E+02 -1.0987938980E+02  3.1063328898E+02  3.3000000000E-01 0. 9.
      21    1   12    0  105  106  4.2378202084E+01  2.7759272018E+01 -1.0299734905E+01  5.1696941243E+01  0.0000000000E+00 0. 9.
      21    1   12    0  106  105  1.0367200357E+02 -5.6907243186E+01  1.3928433156E+02  1.8271957659E+02  0.0000000000E+00 0. 9.
     -11    1   13    0    0    0  4.0335030487E+01 -1.7447990933E+02  1.6932068842E+02  2.4645415187E+02  5.1000000000E-04 0. 9.
      12    1   13    0    0    0 -3.1987058191E+01 -3.2019484664E+02  3.4080050880E+02  4.6871409036E+02  0.0000000000E+00 0. 9.
</event>
<event>
    26   276  1.000000E+00  1.060912E+03  7.982668E-03  9.211438E-02
      -1   -1    0    0    0  101  0.0000000000E+00  0.0000000000E+00  1.1581688660E+03  1.1581688660E+03  0.0000000000E+00 0. 9.
       2   -1    0    0  101    0  0.0000000000E+00  0.0000000000E+00 -1.3382252501E+03  1.3382252501E+03  0.0000000000E+00 0. 9.
-2000001    2    1    2    0  102  3.2134276261E+02 -1.9746172556E+02  5.6309342045E+02  1.2011687610E+03  9.9170554500E+02 0. 9.
 1000002    2    1    2  102    0 -3.2134276261E+02  1.9746172556E+02 -7.4314980451E+02  1.2952253552E+03  9.9150632100E+02 0. 9.
 1000021    2    3    0  103  102  2.9812075094E+02 -6.0097172321E+01  4.4833401806E+02  1.0206746845E+03  8.6503512500E+02 0. 9.
      -1    1    3    0    0  103  2.3222011679E+01 -1.3736455324E+02  1.1475940239E+02  1.8049407649E+02  3.3000000000E-01 0. 9.
 1000021    2    4    0  102  104 -2.2915740785E+02  1.1015812730E+02 -7.4289801767E+02  1.1682598866E+03  8.6503512500E+02 0. 9.
       2    1    4    0  104    0 -9.2185354769E+01  8.7303598258E+01 -2.5178683778E-01  1.2696546853E+02  3.3000000000E-01 0. 9.
-1000024    2    5    0    0    0  3.2054135240E+02  1.3452827643E+02  4.9786735588E+02  6.6415099463E+02  2.6903535800E+02 0. 9.
       2    1    5    0  103    0 -4.1119611291E+01 -2.0940849861E+02 -1.4507709681E+02  2.5805079857E+02  3.3000000000E-01 0. 9.
      -1    1    5    0    0  102  1.8699009827E+01  1.4783049858E+01  9.5543758994E+01  9.8472891266E+01  3.3000000000E-01 0. 9.
 1000024    2    7    0    0    0 -1.4276819502E+02 -1.2111479255E+02 -3.1121740498E+02  4.5198213184E+02  2.6903535800E+02 0. 9.
      -6    2    7    0    0  104 -1.1026494096E+02 -2.0520909476E+01  1.0760019644E+01  2.0662401350E+02  1.7320000000E+02 0. 9.
       5    1    7    0  102    0  2.3875728133E+01  2.5179382933E+02 -4.4244063234E+02  5.0965374130E+02  4.8000000000E+00 0. 9.
 1000022    1    9    0    0    0  2.5138051890E+02  5.3523345091E+01  2.4312164999E+02  3.7655827834E+02  1.2896157000E+02 0. 9.
     -24    2    9    0    0    0  6.9160833500E+01  8.1004931340E+01  2.5474570589E+02  2.8759271629E+02  8.0431188000E+01 0. 9.
 1000022    1   12    0    0    0 -1.4875526431E+02 -4.4607932562E+01 -1.3234799918E+02  2.4138159774E+02  1.2896157000E+02 0. 9.
      24    2   12    0    0    0  5.9870692929E+00 -7.6506859990E+01 -1.7886940580E+02  2.1060053409E+02  8.0431188000E+01 0. 9.
     -24    2   13    0    0    0 -5.7512710980E+01 -7.9336506420E+01  1.3022527041E+01  1.2743922233E+02  8.0431188000E+01 0. 9.
      -5    1   13    0    0  104 -5.2752229983E+01  5.8815596944E+01 -2.2625073966E+00  7.9184791165E+01  4.8000000000E+00 0. 9.
       3    1   16    0  105    0  6.3320979529E+01  6.9053099801E+01  2.5742134353E+02  2.7394137173E+02  5.0000000000E-01 0. 9.
      -4    1   16    0    0  105  5.8398539714E+00  1.1951831539E+01 -2.6756376410E+00  1.3651344561E+01  1.5000000000E+00 0. 9.
     -15    1   18    0    0    0 -6.1735217955E+00 -4.6432043890E+01 -1.7087777402E+02  1.7719034526E+02  1.7770000000E+00 0. 9.
      16    1   18    0    0    0  1.2160591088E+01 -3.0074816101E+01 -7.9916317838E+00  3.3410188830E+01  0.0000000000E+00 0. 9.
       3    1   19    0  106    0  1.5873418199E+00  9.0272815900E+00 -1.4914830472E+01  1.7513241704E+01  5.0000000000E-01 0. 9.
      -4    1   19    0    0  106 -5.9100052800E+01 -8.8363788010E+01  2.7937357513E+01  1.0992598063E+02  1.5000000000E+00 0. 9.
</event>
<event>
    13   258  1.000000E+00  9.437592E+02  7.971948E-03  9.334201E-02
       1   -1    0    0  101    0  0.0000000000E+00  0.0000000000E+00  7.6706086250E+02  7.6706086250E+02  0.0000000000E+00 0. 9.
      21   -1    0    0  102  101  0.0000000000E+00  0.0000000000E+00 -1.2105151973E+03  1.2105151973E+03  0.0000000000E+00 0. 9.
 1000001    2    1    2  103    0 -1.1276352225E+02 -9.7404255898E+01 -4.4573760877E+02  1.0997980800E+03  9.9431916400E+02 0. 9.
 1000021    2    1    2  102  103  1.1276352225E+02  9.7404255898E+01  2.2832739638E+00  8.7777797981E+02  8.6503512500E+02 0. 9.
 1000023    2    3    0    0    0 -1.0248985446E+02  2.2557021603E+02  1.7091428375E+02  4.0361008585E+02  2.6889276000E+02 0. 9.
       1    1    3    0  103    0 -1.0273667788E+01 -3.2297447193E+02 -6.1665189252E+02  6.9618799416E+02  3.3000000000E-01 0. 9.
 1000022    1    4    0    0    0  4.0353984987E+02 -6.0757283283E+01 -7.0736026655E+00  4.2803852665E+02  1.2896157000E+02 0. 9.
       2    1    4    0  102    0 -2.1995309722E+02 -1.6245298063E+00  1.1222612862E+02  2.4693484347E+02  3.3000000000E-01 0. 9.
      -2    1    4    0    0  103 -7.0823230403E+01  1.5978606899E+02 -1.0286925199E+02  2.0280460969E+02  3.3000000000E-01 0. 9.
 1000022    1    5    0    0    0 -6.6848118252E+01  9.0901668050E+01  1.1714789458E+02  2.0757287855E+02  1.2896157000E+02 0. 9.
      25    2    5    0    0    0 -3.5641736207E+01  1.3466854798E+02  5.3766389163E+01  1.9603720729E+02  1.2701893900E+02 0. 9.
     -15    1   11    0    0    0  1.2323050048E+01  5.6025868701E+01  8.1626926310E+01  9.9784108725E+01  1.7770000000E+00 0. 9.
      15    1   11    0    0    0 -4.7964786255E+01  7.8642679282E+01 -2.7860537148E+01  9.6253098569E+01  1.7770000000E+00 0. 9.
</event>
<event>
    14   254  1.000000E+00  7.513300E+02  7.951140E-03  9.583083E-02
       1   -1    0    0  101    0  0.0000000000E+00  0.0000000000E+00  7.2724478642E+02  7.2724478642E+02  0.0000000000E+00 0. 9.
      21   -1    0    0  102  101  0.0000000000E+00  0.0000000000E+00 -6.2009658049E+02  6.2009658049E+02  0.0000000000E+00 0. 9.
 1000002    2    1    2  102    0 -1.0023748107E+02 -1.6345278636E+02  1.1831270897E+02  1.0167826944E+03  9.9150632100E+02 0. 9.
-1000024    2    1    2    0    0  1.0023748107E+02  1.6345278636E+02 -1.1164503042E+01  3.3055867250E+02  2.6903535800E+02 0. 9.
 1000024    2    3    0    0    0  2.3476775830E+02  2.7731225344E+02  7.4512077077E+00  4.5216537970E+02  2.6903535800E+02 0. 9.
       1    1    3    0  102    0 -3.3500523937E+02 -4.4076503980E+02  1.1086150127E+02  5.6461731472E+02  3.3000000000E-01 0. 9.
 1000022    1    4    0    0    0  1.3236669604E+02  1.3492657328E+02 -4.5177045386E+01  2.3323416209E+02  1.2896157000E+02 0. 9.
     -24    2    4    0    0    0 -3.2129214966E+01  2.8526213079E+01  3.4012542344E+01  9.7324510411E+01  8.0431188000E+01 0. 9.
 1000022    1    5    0    0    0  1.0533163932E+02  4.2127800620E+01  7.5919105481E+00  1.7192506935E+02  1.2896157000E+02 0. 9.
      24    2    5    0    0    0  1.2943611898E+02  2.3518445282E+02 -1.4070284044E-01  2.8024031035E+02  8.0431188000E+01 0. 9.
      13    1    8    0    0    0 -3.5865420205E+00  5.1682283405E+01  3.1169051241E+01  6.0460256540E+01  1.0566000000E-01 0. 9.
     -14    1    8    0    0    0 -2.8542672945E+01 -2.3156070326E+01  2.8434911031E+00  3.6864253871E+01  0.0000000000E+00 0. 9.
     -11    1   10    0    0    0 -7.3330502705E+00 -6.9218373745E-01  1.7619566949E+00  7.5734560308E+00  5.1000000000E-04 0. 9.
      12    1   10    0    0    0  1.3676916925E+02  2.3587663656E+02 -1.9026595354E+00  2.7266685432E+02  0.0000000000E+00 0. 9.
</event>
<event>
    12   230  1.000000E+00  3.764629E+02  7.888739E-03  1.042549E-01
       1   -1    0    0  101    0  0.0000000000E+00  0.0000000000E+00  9.5978618385E+02  9.5978618385E+02  0.0000000000E+00 0. 9.
      -2   -1    0    0    0  101  0.0000000000E+00  0.0000000000E+00 -1.8775415158E+02  1.8775415158E+02  0.0000000000E+00 0. 9.
 1000023    2    1    2    0    0 -2.5265533842E+02 -7.4484429882E+01  1.2083766842E+02  3.9533240294E+02  2.6889276000E+02 0. 9.
-1000024    2    1    2    0    0  2.5265533842E+02  7.4484429882E+01  6.5119436385E+02  7.5220793248E+02  2.6903535800E+02 0. 9.
 1000022    1    3    0    0    0 -1.4446253959E+02 -5.8551416285E+01  2.9493028348E+01  2.0444710551E+02  1.2896157000E+02 0. 9.
      25    2    3    0    0    0 -1.0819279883E+02 -1.5933013597E+01  9.1344640075E+01  1.9088529743E+02  1.2701893900E+02 0. 9.
 1000022    1    4    0    0    0  1.6377007616E+02  5.9671110321E+01  2.3907320196E+02  3.2275123808E+02  1.2896157000E+02 0. 9.
     -24    2    4    0    0    0  8.8885262258E+01  1.4813319561E+01  4.1212116189E+02  4.2945669440E+02  8.0431188000E+01 0. 9.
       5    1    6    0  102    0 -4.6124157934E+00  1.5170380761E+01 -2.6254903269E+01  3.1044722217E+01  4.8000000000E+00 0. 9.
      -5    1    6    0    0  102 -1.0358038304E+02 -3.1103394358E+01  1.1759954334E+02  1.5984057522E+02  4.8000000000E+00 0. 9.
      11    1    8    0    0    0 -1.4639326067E+01  4.7703270992E+00  7.8590606524E+01  8.0084638492E+01  5.1000000000E-04 0. 9.
     -12    1    8    0    0    0  1.0352458833E+02  1.0042992462E+01  3.3353055537E+02  3.4937205591E+02  0.0000000000E+00 0. 9.
</event>
<event>
     9   259  1.000000E+00  1.025388E+03  7.979545E-03  9.246834E-02
      21   -1    0    0  101  102  0.0000000000E+00  0.0000000000E+00  8.3927174370E+02  8.3927174370E+02  0.0000000000E+00 0. 9.
       2   -1    0    0  102    0  0.0000000000E+00  0.0000000000E+00 -2.3596416560E+03  2.3596416560E+03  0.0000000000E+00 0. 9.
 1000021    2    1    2  101  103  1.4057566099E+02  4.0765199200E+02  3.5878959384E+02  1.0309982557E+03  8.6503512500E+02 0. 9.
 2000002    2    1    2  103    0 -1.4057566099E+02 -4.0765199200E+02 -1.8791595061E+03  2.1679151440E+03  9.9129912700E+02 0. 9.
 1000022    1    3    0    0    0 -6.4344160503E+00  1.8480048123E+02 -2.5406793084E+02  3.3966780771E+02  1.2896157000E+02 0. 9.
       5    1    3    0  101    0  6.5677491150E+00  8.0359559205E+01  5.2563292758E+01  9.6367701174E+01  4.8000000000E+00 0. 9.
      -5    1    3    0    0  103  1.4044232793E+02  1.4249195156E+02  5.6029423192E+02  5.9496274678E+02  4.8000000000E+00 0. 9.
 1000022    1    4    0    0    0 -2.9795953192E+02 -8.6948030001E+01 -1.7592763810E+03  1.7910958416E+03  1.2896157000E+02 0. 9.
       2    1    4    0  103    0  1.5738387092E+02 -3.2070396200E+02 -1.1988312511E+02  3.7681930239E+02  3.3000000000E-01 0. 9.
</event>
<event>
    12   230  1.000000E+00  2.712751E+02  7.859490E-03  1.087898E-01
       2   -1    0    0  101    0  0.0000000000E+00  0.0000000000E+00  1.6702379202E+03  1.6702379202E+03  0.0000000000E+00 0. 9.
      -1   -1    0    0    0  101  0.0000000000E+00  0.0000000000E+00 -6.9513384254E+01  6.9513384254E+01  0.0000000000E+00 0. 9.
 1000024    2    1    2    0    0  1.3764400259E+01  3.2543385547E+01  1.3268730385E+03  1.3543340115E+03  2.6903535800E+02 0. 9.
 1000023    2    1    2    0    0 -1.3764400259E+01 -3.2543385547E+01  2.7385149750E+02  3.8541729297E+02  2.6889276000E+02 0. 9.
 1000022    1    3    0    0    0 -5.7613036177E+01  1.5628056946E+00  4.8809743881E+02  5.0812587083E+02  1.2896157000E+02 0. 9.
      24    2    3    0    0    0  7.1377436435E+01  3.0980579853E+01  8.3877559965E+02  8.4620814067E+02  8.0431188000E+01 0. 9.
 1000022    1    4    0    0    0  2.9151154510E+01 -1.2157729607E+01  1.0780234943E+02  1.7102641105E+02  1.2896157000E+02 0. 9.
      25    2    4    0    0    0 -4.2915554769E+01 -2.0385655940E+01  1.6604914808E+02  2.1439088192E+02  1.2701893900E+02 0. 9.
      -1    1    6    0    0  102  5.6660389001E+01 -1.8086655230E+01  3.8825741412E+02  3.9278678096E+02  3.3000000000E-01 0. 9.
       2    1    6    0  102    0  1.4717047434E+01  4.9067235083E+01  4.5051818553E+02  4.5342135971E+02  3.3000000000E-01 0. 9.
       5    1    8    0  103    0 -7.2444915004E+01 -1.7821853689E+01  1.6842415603E+02  1.8427050907E+02  4.8000000000E+00 0. 9.
      -5    1    8    0    0  103  2.9529360235E+01 -2.5638022513E+00 -2.3750079526E+00  3.0120372851E+01  4.8000000000E+00 0. 9.
</event>
<event>
    12   226  1.000000E+00  3.419278E+02  7.880128E-03  1.055468E-01
      -2   -1    0    0    0  101  0.0000000000E+00  0.0000000000E+00  1.6027985560E+02  1.6027985560E+02  0.0000000000E+00 0. 9.
       2   -1    0    0  101    0  0.0000000000E+00  0.0000000000E+00 -7.3659486802E+02  7.3659486802E+02  0.0000000000E+00 0. 9.
-1000024    2    1    2    0    0 -1.0452213621E+02 -1.8332955256E+02 -3.3235235322E+02  4.7683614832E+02  2.6903535800E+02 0. 9.
 1000024    2    1    2    0    0  1.0452213621E+02  1.8332955256E+02 -2.4396265920E+02  4.2003857530E+02  2.6903535800E+02 0. 9.
 1000022    1    3    0    0    0 -1.3245821098E+02 -9.9871953939E+01 -1.4695134494E+02  2.5640859805E+02  1.2896157000E+02 0. 9.
     -24    2    3    0    0    0  2.7936074770E+01 -8.3457598623E+01 -1.8540100828E+02  2.2042755027E+02  8.0431188000E+01 0. 9.
 1000022    1    4    0    0    0  2.1636320382E+01  8.1615141118E+00 -1.1028481649E+02  1.7125585525E+02  1.2896157000E+02 0. 9.
      24    2    4    0    0    0  8.2885815831E+01  1.7516803845E+02 -1.3367784271E+02  2.4878272005E+02  8.0431188000E+01 0. 9.
       3    1    6    0  102    0  2.5506642021E+01 -8.9653849203E+01 -1.9038468318E+02  2.1197872312E+02  5.0000000000E-01 0. 9.
      -4    1    6    0    0  102  2.4294327489E+00  6.1962505799E+00  4.9836748985E+00  8.4488271508E+00  1.5000000000E+00 0. 9.
      -3    1    8    0    0  103  9.0817397806E+01  1.7903531917E+02 -1.2956241575E+02  2.3893119267E+02  5.0000000000E-01 0. 9.
       4    1    8    0  103    0 -7.9315819747E+00 -3.8672807152E+00 -4.1154269558E+00  9.8515273831E+00  1.5000000000E+00 0. 9.
</event>
<event>
    12   226  1.000000E+00  2.893862E+02  7.865242E-03  1.078644E-01
      -2   -1    0    0    0  101  0.0000000000E+00  0.0000000000E+00  1.7881303270E+02  1.7881303270E+02  0.0000000000E+00 0. 9.
       2   -1    0    0  101    0  0.0000000000E+00  0.0000000000E+00 -5.6085172419E+02  5.6085172419E+02  0.0000000000E+00 0. 9.
-1000024    2    1    2    0    0  7.0799747186E+01  7.9697725895E+01 -4.0811841754E+01  2.9224982805E+02  2.6903535800E+02 0. 9.
 1000024    2    1    2    0    0 -7.0799747186E+01 -7.9697725895E+01 -3.4122684973E+02  4.4741492884E+02  2.6903535800E+02 0. 9.
 1000022    1    3    0    0    0  4.2083858464E+01  7.4274675535E+01  5.4666098700E+01  1.6403428743E+02  1.2896157000E+02 0. 9.
     -24    2    3    0    0    0  2.8715888722E+01  5.4230503608E+00 -9.5477940454E+01  1.2821554062E+02  8.0431188000E+01 0. 9.
 1000022    1    4    0    0    0  1.1729037827E+01 -9.6103985006E+01 -2.5825999893E+02  3.0447144340E+02  1.2896157000E+02 0. 9.
      24    2    4    0    0    0 -8.2528785013E+01  1.6406259110E+01 -8.2966850801E+01  1.4294348544E+02  8.0431188000E+01 0. 9.
       3    1    6    0  102    0  5.4439008357E+01 -1.2853023630E+00 -8.1835231351E+01  9.8298080975E+01  5.0000000000E-01 0. 9.
      -4    1    6    0    0  102 -2.5723119635E+01  6.7083527238E+00 -1.3642709102E+01  2.9917459646E+01  1.5000000000E+00 0. 9.
     -13    1    8    0    0    0 -8.5688425583E+01 -1.4506529743E+00 -8.9266409006E+01  1.2374616606E+02  1.0566000000E-01 0. 9.
      14    1    8    0    0    0  3.1596405710E+00  1.7856912085E+01  6.2995582051E+00  1.9197319379E+01  0.0000000000E+00 0. 9.
</event>
<event>
    12   226  1.000000E+00  3.793134E+02  7.889415E-03  1.041550E-01
       2   -1    0    0  101    0  0.0000000000E+00  0.0000000000E+00  1.9610428616E+02  1.9610428616E+02  0.0000000000E+00 0. 9.
      -2   -1    0    0    0  101  0.0000000000E+00  0.0000000000E+00 -1.0555112531E+03  1.0555112531E+03  0.0000000000E+00 0. 9.
 1000024    2    1    2    0    0 -2.3316053272E+02 -1.3090003622E+02 -8.4145778389E+01  3.8853466946E+02  2.6903535800E+02 0. 9.
-1000024    2    1    2    0    0  2.3316053272E+02  1.3090003622E+02 -7.7526118859E+02  8.6308086985E+02  2.6903535800E+02 0. 9.
 1000022    1    3    0    0    0 -2.0169507568E+02 -2.2882552847E+01 -4.3574830145E+01  2.4440615200E+02  1.2896157000E+02 0. 9.
      24    2    3    0    0    0 -3.1465457041E+01 -1.0801748337E+02 -4.0570948244E+01  1.4412851746E+02  8.0431188000E+01 0. 9.
 1000022    1    4    0    0    0  1.4068457985E+02  1.4721395516E+02 -3.9004556342E+02  4.5850924492E+02  1.2896157000E+02 0. 9.
     -24    2    4    0    0    0  9.2475952873E+01 -1.6313918939E+01 -3.8521562518E+02  4.0457162492E+02  8.0431188000E+01 0. 9.
      -3    1    6    0    0  102 -3.8744721623E+01 -1.0008850283E+02 -5.9192434891E+01  1.2256776167E+02  5.0000000000E-01 0. 9.
       4    1    6    0  102    0  7.2792645817E+00 -7.9289805390E+00  1.8621486647E+01  2.1560755788E+01  1.5000000000E+00 0. 9.
      15    1    8    0    0    0  1.0008825397E+01  2.3175761172E+01 -3.9044488911E+01  4.6528725913E+01  1.7770000000E+00 0. 9.
     -16    1    8    0    0    0  8.2467127476E+01 -3.9489680112E+01 -3.4617113626E+02  3.5804289901E+02  0.0000000000E+00 0. 9.
</event>
<event>
    16   259  1.000000E+00  1.120571E+03  7.987690E-03  9.155142E-02
       2   -1    0    0  101    0  0.0000000000E+00  0.0000000000E+00  1.6511415695E+03  1.6511415695E+03  0.0000000000E+00 0. 9.
      21   -1    0    0  102  101  0.0000000000E+00  0.0000000000E+00 -8.1005395667E+02  8.1005395667E+02  0.0000000000E+00 0. 9.
 2000002    2    1    2  103    0 -6.0780841906E+02  1.4411065632E+02  7.4809977128E+02  1.3901532946E+03  9.9129912700E+02 0. 9.
 1000021    2    1    2  102  103  6.0780841906E+02 -1.4411065632E+02  9.2987841515E+01  1.0710422315E+03  8.6503512500E+02 0. 9.
 1000021    2    3    0  103  104 -3.9718355740E+02  1.2690908941E+02  6.0666503403E+02  1.1358648363E+03  8.6503512500E+02 0. 9.
       2    1    3    0  104    0 -2.1062486166E+02  1.7201566904E+01  1.4143473725E+02  2.5428845835E+02  3.3000000000E-01 0. 9.
 1000022    1    4    0    0    0 -1.1343711314E+02 -2.7856285130E+02 -1.8713008283E+01  3.2779033539E+02  1.2896157000E+02 0. 9.
       4    1    4    0  102    0  1.1624419696E+01  6.8190756271E+00 -4.7477898361E-01  1.3568431773E+01  1.5000000000E+00 0. 9.
      -4    1    4    0    0  103  7.0962111250E+02  1.2763311935E+02  1.1217562878E+02  7.2968346435E+02  1.5000000000E+00 0. 9.
 1000023    2    5    0    0    0 -4.8460810160E+02  1.6836604400E+02  2.9464587402E+02  6.4985509489E+02  2.6889276000E+02 0. 9.
       3    1    5    0  103    0  1.2788117543E+02  1.2186292286E+02  2.5121172891E+02  3.0710218127E+02  5.0000000000E-01 0. 9.
      -3    1    5    0    0  104 -4.0456631236E+01 -1.6331987745E+02  6.0807431105E+01  1.7890756009E+02  5.0000000000E-01 0. 9.
 1000022    1   10    0    0    0 -2.1307497236E+02  9.0853337373E+01  1.7626475289E+02  3.1836397787E+02  1.2896157000E+02 0. 9.
      25    2   10    0    0    0 -2.7153312924E+02  7.7512706625E+01  1.1838112113E+02  3.3149111702E+02  1.2701893900E+02 0. 9.
      21    1   14    0  105  106 -1.1405628327E+02 -7.4640958410E+00  9.9527127588E+01  1.5155922145E+02  0.0000000000E+00 0. 9.
      21    1   14    0  106  105 -1.5747684597E+02  8.4976802466E+01  1.8853993541E+01  1.7993189558E+02  0.0000000000E+00 0. 9.
</event>
<event>
    14   248  1.000000E+00  8.017265E+02  7.957053E-03  9.510881E-02
      21   -1    0    0  101  102  0.0000000000E+00  0.0000000000E+00  7.3035515309E+02  7.3035515309E+02  0.0000000000E+00 0. 9.
       2   -1    0    0  102    0  0.0000000000E+00  0.0000000000E+00 -8.3367885930E+02  8.3367885930E+02  0.0000000000E+00 0. 9.
 1000023    2    1    2    0    0 -4.3056222183E+01  3.3647801051E+02  1.9456982051E+02  4.7458615789E+02  2.6889276000E+02 0. 9.
 1000002    2    1    2  101    0  4.3056222183E+01 -3.3647801051E+02 -2.9789352672E+02  1.0894478545E+03  9.9150632100E+02 0. 9.
 1000022    1    3    0    0    0 -6.2984974779E+00  1.1283774898E+02  5.7631003017E+01  1.8089899864E+02  1.2896157000E+02 0. 9.
      25    2    3    0    0    0 -3.6757724705E+01  2.2364026153E+02  1.3693881750E+02  2.9368715924E+02  1.2701893900E+02 0. 9.
 1000023    2    4    0    0    0  4.3465092697E+02 -4.5380265946E+01  8.6901871345E+00  5.1318576811E+02  2.6889276000E+02 0. 9.
       2    1    4    0  101    0 -3.9159470479E+02 -2.9109774456E+02 -3.0658371386E+02  5.7626208639E+02  3.3000000000E-01 0. 9.
       5    1    6    0  103    0 -2.3851431866E+01 -1.7876294887E+00  4.2261418993E+01  4.8797069139E+01  4.8000000000E+00 0. 9.
      -5    1    6    0    0  103 -1.2906292839E+01  2.2542789102E+02  9.4677398502E+01  2.4489009010E+02  4.8000000000E+00 0. 9.
 1000022    1    7    0    0    0  2.3762422566E+02 -2.9756803134E+01 -3.4929018559E+01  2.7422958051E+02  1.2896157000E+02 0. 9.
      25    2    7    0    0    0  1.9702670131E+02 -1.5623462812E+01  4.3619205694E+01  2.3895618760E+02  1.2701893900E+02 0. 9.
       5    1   12    0  104    0  8.2015714416E+01 -6.8985240714E+01  1.0270279406E+01  1.0776854591E+02  4.8000000000E+00 0. 9.
      -5    1   12    0    0  104  1.1501098690E+02  5.3361777902E+01  3.3348926287E+01  1.3118764169E+02  4.8000000000E+00 0. 9.
</event>
<event>
    20   258  1.000000E+00  1.580847E+03  8.019425E-03  8.816229E-02
       1   -1    0    0  101    0  0.0000000000E+00  0.0000000000E+00  1.4886814218E+03  1.4886814218E+03  0.0000000000E+00 0. 9.
      21   -1    0    0  102  101  0.0000000000E+00  0.0000000000E+00 -1.8783267579E+03  1.8783267579E+03  0.0000000000E+00 0. 9.
 1000001    2    1    2  103    0  1.0284960170E+03 -7.5683303077E+02 -7.4900459214E+02  1.7833336122E+03  9.9431916400E+02 0. 9.
 1000021    2    1    2  102  103 -1.0284960170E+03  7.5683303077E+02  3.5935925600E+02  1.5836745675E+03  8.6503512500E+02 0. 9.
 1000021    2    3    0  103  104  8.7513793824E+02 -7.5603601274E+02 -5.8331260790E+02  1.5575609874E+03  8.6503512500E+02 0. 9.
       1    1    3    0  104    0  1.5335807875E+02 -7.9701803192E-01 -1.6569198424E+02  2.2577262478E+02  3.3000000000E-01 0. 9.
 1000024    2    4    0    0    0 -6.6917529189E+02  5.0411693172E+02  4.0006807216E+02  9.6662502468E+02  2.6903535800E+02 0. 9.
      -4    1    4    0    0  103 -1.9810592817E+02 -4.5931705119E+01  1.2568550553E+02  2.3907065192E+02  1.5000000000E+00 0. 9.
       3    1    4    0  102    0 -1.6121479693E+02  2.9864780417E+02 -1.6639432168E+02  3.7797889091E+02  5.0000000000E-01 0. 9.
-1000024    2    5    0    0    0  7.6030821306E+02 -3.1202857708E+02 -2.9119167633E+02  9.1247083678E+02  2.6903535800E+02 0. 9.
       2    1    5    0  103    0  2.1790104000E+02 -1.8121597941E+02 -2.0462432483E+02  3.4955874705E+02  3.3000000000E-01 0. 9.
      -1    1    5    0    0  104 -1.0307131482E+02 -2.6279145625E+02 -8.7496606741E+01  2.9553140359E+02  3.3000000000E-01 0. 9.
 1000022    1    7    0    0    0 -5.8325798910E+02  3.8495946516E+02  3.4772914634E+02  7.9115758065E+02  1.2896157000E+02 0. 9.
      24    2    7    0    0    0 -8.5917302784E+01  1.1915746656E+02  5.2338925816E+01  1.7546744403E+02  8.0431188000E+01 0. 9.
 1000022    1   10    0    0    0  5.3985515381E+02 -2.2089152420E+02 -1.2357749876E+02  6.1003207891E+02  1.2896157000E+02 0. 9.
     -24    2   10    0    0    0  2.2045305925E+02 -9.1137052877E+01 -1.6761417757E+02  3.0243875787E+02  8.0431188000E+01 0. 9.
      -3    1   14    0    0  105 -4.3198904756E+01  4.4641977821E+01 -1.7737052674E+01  6.4605762850E+01  5.0000000000E-01 0. 9.
       4    1   14    0  105    0 -4.2718398029E+01  7.4515488740E+01  7.0075978490E+01  1.1086168118E+02  1.5000000000E+00 0. 9.
       1    1   16    0  106    0  4.2546034792E+00 -2.2223514705E+01 -4.7415564150E+00  2.3120932374E+01  3.3000000000E-01 0. 9.
      -2    1   16    0    0  106  2.1619845577E+02 -6.8913538171E+01 -1.6287262115E+02  2.7931782550E+02  3.3000000000E-01 0. 9.
</event>
<event>
    13   259  1.000000E+00  1.176296E+03  7.992151E-03  9.105774E-02
      21   -1    0    0  101  102  0.0000000000E+00  0.0000000000E+00  9.8368215581E+02  9.8368215581E+02  0.0000000000E+00 0. 9.
       1   -1    0    0  102    0  0.0000000000E+00  0.0000000000E+00 -1.8465189238E+03  1.8465189238E+03  0.0000000000E+00 0. 9.
 1000021    2    1    2  101  103  7.1947146002E+02 -1.2263009915E+01  2.7475608822E+02  1.1582600048E+03  8.6503512500E+02 0. 9.
 2000001    2    1    2  103    0 -7.1947146002E+02  1.2263009915E+01 -1.1375928562E+03  1.6719410748E+03  9.9170554500E+02 0. 9.
-1000024    2    3    0    0    0  4.1827210569E+02  3.7284089556E+01 -1.8164148879E+02  5.3076860499E+02  2.6903535800E+02 0. 9.
       4    1    3    0  101    0  2.6251797329E+02  6.6322924613E+01  1.7955273403E+02  3.2489359940E+02  1.5000000000E+00 0. 9.
      -3    1    3    0    0  103  3.8681381031E+01 -1.1587002408E+02  2.7684484299E+02  3.0259780040E+02  5.0000000000E-01 0. 9.
 1000022    1    4    0    0    0  2.3503584412E+02 -1.2582287910E+01 -2.1066443063E+02  3.4119019749E+02  1.2896157000E+02 0. 9.
       1    1    4    0  103    0 -9.5450730414E+02  2.4845297825E+01 -9.2692842558E+02  1.3307508773E+03  3.3000000000E-01 0. 9.
 1000022    1    5    0    0    0  2.5582705986E+02 -3.8685476669E+01 -1.6657364813E+02  3.3364939301E+02  1.2896157000E+02 0. 9.
     -24    2    5    0    0    0  1.6244504583E+02  7.5969566226E+01 -1.5067840660E+01  1.9711921198E+02  8.0431188000E+01 0. 9.
      15    1   11    0    0    0  9.1224595212E+01  1.8736009829E+01  2.6351903806E+01  9.6801577462E+01  1.7770000000E+00 0. 9.
     -16    1   11    0    0    0  7.1220450614E+01  5.7233556397E+01 -4.1419744466E+01  1.0031763452E+02  0.0000000000E+00 0. 9.
</event>
<event>
    26   244  1.000000E+00  9.275305E+02  7.970361E-03  9.352677E-02
      21   -1    0    0  101  102  0.0000000000E+00  0.0000000000E+00  7.8629739123E+02  7.8629739123E+02  0.0000000000E+00 0. 9.
      21   -1    0    0  103  101  0.0000000000E+00  0.0000000000E+00 -1.7208736646E+03  1.7208736646E+03  0.0000000000E+00 0. 9.
 1000021    2    1    2  103  104  1.7906354154E+02 -2.8277791690E+02 -1.2238141690E+03  1.5355891345E+03  8.6503512500E+02 0. 9.
 1000021    2    1    2  104  102 -1.7906354154E+02  2.8277791690E+02  2.8923789560E+02  9.7158192137E+02  8.6503512500E+02 0. 9.
 1000023    2    3    0    0    0 -4.4070489073E+01 -1.2387925630E+02 -2.5042414698E+02  3.9026125598E+02  2.6889276000E+02 0. 9.
       6    2    3    0  103    0 -5.0628251663E+00 -2.0694027382E+02 -2.5871222514E+02  3.7387185581E+02  1.7320000000E+02 0. 9.
      -6    2    3    0    0  104  2.2819685578E+02  4.8041613224E+01 -7.1467779687E+02  7.7145602268E+02  1.7320000000E+02 0. 9.
-1000024    2    4    0    0    0  1.3934426835E+02  2.8126712211E+02 -1.2856792797E+02  4.3294082166E+02  2.6903535800E+02 0. 9.
       4    1    4    0  104    0 -1.6909498660E+01  3.1486409323E+01  5.9278719861E+01  6.9235408176E+01  1.5000000000E+00 0. 9.
      -3    1    4    0    0  102 -3.0149831123E+02 -2.9975614539E+01  3.5852710371E+02  4.6940569153E+02  5.0000000000E-01 0. 9.
 1000022    1    5    0    0    0 -7.4340690465E+01 -1.3703377573E+02 -1.7114166556E+02  2.6500066071E+02  1.2896157000E+02 0. 9.
      23    2    5    0    0    0  3.0270201393E+01  1.3154519428E+01 -7.9282481415E+01  1.2526059527E+02  9.1187600000E+01 0. 9.
      24    2    6    0    0    0  2.8371316845E+01 -2.1461355106E+02 -1.9904854574E+02  3.0488261262E+02  8.0431188000E+01 0. 9.
       5    1    6    0  103    0 -3.3434142012E+01  7.6732772333E+00 -5.9663679397E+01  6.8989243182E+01  4.8000000000E+00 0. 9.
     -24    2    7    0    0    0  2.2183333480E+02  2.6707087196E+01 -4.7853389566E+02  5.3421640019E+02  8.0431188000E+01 0. 9.
      -5    1    7    0    0  104  6.3635209838E+00  2.1334526029E+01 -2.3614390121E+02  2.3723962249E+02  4.8000000000E+00 0. 9.
 1000022    1    8    0    0    0  2.7198022265E+01  1.0298382068E+02 -1.2264052262E+02  2.0740584385E+02  1.2896157000E+02 0. 9.
     -24    2    8    0    0    0  1.1214624609E+02  1.7828330143E+02 -5.9274053555E+00  2.2553497782E+02  8.0431188000E+01 0. 9.
       1    1   12    0  105    0 -3.0567843273E+01  1.8751903560E+01 -3.0500302816E+01  4.7078703267E+01  3.3000000000E-01 0. 9.
      -1    1   12    0    0  105  6.0838044666E+01 -5.5973841320E+00 -4.8782178599E+01  7.8181892000E+01  3.3000000000E-01 0. 9.
      -1    1   13    0    0  106  2.8133448814E+01 -6.5643279913E+01 -2.4725970789E+01  7.5577864956E+01  3.3000000000E-01 0. 9.
       2    1   13    0  106    0  2.3786803171E-01 -1.4897027114E+02 -1.7432257495E+02  2.2930474767E+02  3.3000000000E-01 0. 9.
      13    1   15    0    0    0  1.3680995796E+02 -2.2412652425E+01 -2.9928990228E+02  3.2983897338E+02  1.0566000000E-01 0. 9.
     -14    1   15    0    0    0  8.5023376836E+01  4.9119739620E+01 -1.7924399338E+02  2.0437742682E+02  0.0000000000E+00 0. 9.
       1    1   18    0  107    0  3.3782447203E+01  3.8294932116E+01 -3.5775877141E+01  6.2352047681E+01  3.3000000000E-01 0. 9.
      -2    1   18    0    0  107  7.8363798885E+01  1.3998836932E+02  2.9848471786E+01  1.6318293014E+02  3.3000000000E-01 0. 9.
</event>
<event>
    12   226  1.000000E+00  2.915689E+02  7.865911E-03  1.077579E-01
       1   -1    0    0  101    0  0.0000000000E+00  0.0000000000E+00  2.3376747892E+02  2.3376747892E+02  0.0000000000E+00 0. 9.
      -1   -1    0    0    0  101  0.0000000000E+00  0.0000000000E+00 -6.3716661319E+02  6.3716661319E+02  0.0000000000E+00 0. 9.
-1000024    2    1    2    0    0  2.7719780147E+01 -1.0892194120E+02  8.3606460143E+01  3.0331903916E+02  2.6903535800E+02 0. 9.
 1000024    2    1    2    0    0 -2.7719780147E+01  1.0892194120E+02 -4.8700559442E+02  5.6761505295E+02  2.6903535800E+02 0. 9.
 1000022    1    3    0    0    0  8.7270547195E+00  3.5095158247E+00 -1.8215595388E+01  1.3058090457E+02  1.2896157000E+02 0. 9.
     -24    2    3    0    0    0  1.8992725428E+01 -1.1243145702E+02  1.0182205553E+02  1.7273813459E+02  8.0431188000E+01 0. 9.
 1000022    1    4    0    0    0 -9.5976835464E+01  4.4000807060E+01 -3.0272985018E+02  3.4557788225E+02  1.2896157000E+02 0. 9.
      24    2    4    0    0    0  6.8257055317E+01  6.4921134136E+01 -1.8427574424E+02  2.2203717071E+02  8.0431188000E+01 0. 9.
       3    1    6    0  102    0 -2.2134604321E+00 -2.2963959000E+01  7.2706160800E+01  7.6280263754E+01  5.0000000000E-01 0. 9.
      -4    1    6    0    0  102  2.1206185860E+01 -8.9467498021E+01  2.9115894731E+01  9.6457870839E+01  1.5000000000E+00 0. 9.
      -1    1    8    0    0  103  4.5449814678E+01 -7.5562867199E+00 -5.1867123969E+01  6.9376441045E+01  3.3000000000E-01 0. 9.
       2    1    8    0  103    0  2.2807240639E+01  7.2477420856E+01 -1.3240862027E+02  1.5266072966E+02  3.3000000000E-01 0. 9.
</event>
<event>
    18   244  1.000000E+00  8.671091E+02  7.964205E-03  9.425131E-02
      21   -1    0    0  101  102  0.0000000000E+00  0.0000000000E+00  7.7228586336E+02  7.7228586336E+02  0.0000000000E+00 0. 9.
      21   -1    0    0  103  101  0.0000000000E+00  0.0000000000E+00 -1.4283037985E+03  1.4283037985E+03  0.0000000000E+00 0. 9.
 1000021    2    1    2  103  104  5.8535292553E+01 -1.2883368401E+01  2.9282440832E+02  9.1521815063E+02  8.6503512500E+02 0. 9.
 1000021    2    1    2  104  102 -5.8535292553E+01  1.2883368401E+01 -9.4884234346E+02  1.2853715112E+03  8.6503512500E+02 0. 9.
 1000024    2    3    0    0    0 -3.1645526471E+02  4.5050578107E-01  1.5178259978E+02  4.4222405969E+02  2.6903535800E+02 0. 9.
      -4    1    3    0    0  104 -3.6858471239E-01 -6.6696796932E+01 -4.5434869692E+00  6.6869214513E+01  1.5000000000E+00 0. 9.
       3    1    3    0  103    0  3.7535914197E+02  5.3362922750E+01  1.4558529550E+02  4.0612487643E+02  5.0000000000E-01 0. 9.
 1000023    2    4    0    0    0  2.3414871810E+02 -1.3784323310E+02 -2.0567717992E+02  4.3408846774E+02  2.6889276000E+02 0. 9.
       2    1    4    0  104    0  6.6326983835E+00 -4.0639032014E+01 -2.0463615464E+01  4.5982519164E+01  3.3000000000E-01 0. 9.
      -2    1    4    0    0  102 -2.9931670904E+02  1.9136563351E+02 -7.2270154807E+02  8.0530052433E+02  3.3000000000E-01 0. 9.
 1000022    1    5    0    0    0 -1.8914911095E+02 -3.6538465223E+01  9.8873107079E+00  2.3203726223E+02  1.2896157000E+02 0. 9.
      24    2    5    0    0    0 -1.2730615376E+02  3.6988971004E+01  1.4189528908E+02  2.1018679746E+02  8.0431188000E+01 0. 9.
 1000022    1    8    0    0    0  1.2015836200E+02 -7.1227791847E+01 -5.7971217596E+01  1.9875406636E+02  1.2896157000E+02 0. 9.
      25    2    8    0    0    0  1.1399035610E+02 -6.6615441252E+01 -1.4770596233E+02  2.3533440137E+02  1.2701893900E+02 0. 9.
     -13    1   12    0    0    0 -5.4632241261E+01  5.5102680635E+01  5.3111434924E+01  9.4030967677E+01  1.0566000000E-01 0. 9.
      14    1   12    0    0    0 -7.2673912499E+01 -1.8113709631E+01  8.8783854153E+01  1.1615582978E+02  0.0000000000E+00 0. 9.
       5    1   14    0  105    0 -2.4098519595E+01 -1.4474437532E+01 -5.2135005496E+01  5.9425135983E+01  4.8000000000E+00 0. 9.
      -5    1   14    0    0  105  1.3808887570E+02 -5.2141003721E+01 -9.5570956831E+01  1.7590926539E+02  4.8000000000E+00 0. 9.
</event>
<event>
    12   230  1.000000E+00  2.896279E+02  7.865316E-03  1.078526E-01
       2   -1    0    0  101    0  0.0000000000E+00  0.0000000000E+00  9.0100695010E+02  9.0100695010E+02  0.0000000000E+00 0. 9.
      -1   -1    0    0    0  101  0.0000000000E+00  0.0000000000E+00 -1.0188006141E+02  1.0188006141E+02  0.0000000000E+00 0. 9.
 1000024    2    1    2    0    0 -8.2666539117E+01  6.8621457757E+01  2.5244608627E+02  3.8425474816E+02  2.6903535800E+02 0. 9.
 1000023    2    1    2    0    0  8.2666539117E+01 -6.8621457757E+01  5.4668080241E+02  6.1863226335E+02  2.6889276000E+02 0. 9.
 1000022    1    3    0    0    0 -1.0757693944E+02 -1.2830359276E+01  1.1649158173E+02  2.0478962662E+02  1.2896157000E+02 0. 9.
      24    2    3    0    0    0  2.4910400323E+01  8.1451817033E+01  1.3595450454E+02  1.7946512154E+02  8.0431188000E+01 0. 9.
 1000022    1    4    0    0    0  2.2525206039E+00 -1.5555316727E+01  2.3348265352E+02  2.6719333404E+02  1.2896157000E+02 0. 9.
      25    2    4    0    0    0  8.0414018513E+01 -5.3066141030E+01  3.1319814889E+02  3.5143892931E+02  1.2701893900E+02 0. 9.
      -1    1    6    0    0  102  6.7086739874E+00  6.7916665109E+01  1.4057673986E+02  1.5626774586E+02  3.3000000000E-01 0. 9.
       4    1    6    0  102    0  1.8201726336E+01  1.3535151924E+01 -4.6222353198E+00  2.3197375683E+01  1.5000000000E+00 0. 9.
       5    1    8    0  103    0 -1.7484074201E+01 -7.6411026542E+00 -4.7797679717E-01  1.9681152462E+01  4.8000000000E+00 0. 9.
      -5    1    8    0    0  103  9.7898092714E+01 -4.5425038376E+01  3.1367612569E+02  3.3175777685E+02  4.8000000000E+00 0. 9.
</event>
<event>
    15   241  1.000000E+00  7.462422E+02  7.950521E-03  9.590703E-02
       2   -1    0    0  101    0  0.0000000000E+00  0.0000000000E+00  7.6676659556E+02  7.6676659556E+02  0.0000000000E+00 0. 9.
      -1   -1    0    0    0  102  0.0000000000E+00  0.0000000000E+00 -6.6281727511E+02  6.6281727511E+02  0.0000000000E+00 0. 9.
 1000024    2    1    2    0    0  5.8913789062E+01 -3.7825084896E+02  1.2170254599E+02  4.8346258680E+02  2.6903535800E+02 0. 9.
 1000021    2    1    2  101  102 -5.8913789062E+01  3.7825084896E+02 -1.7753225537E+01  9.4612128386E+02  8.6503512500E+02 0. 9.
 1000022    1    3    0    0    0  2.0278444448E+01 -2.9599381044E+02  1.8292126404E+01  3.2402043076E+02  1.2896157000E+02 0. 9.
      24    2    3    0    0    0  3.8635344615E+01 -8.2257038523E+01  1.0341041958E+02  1.5944215604E+02  8.0431188000E+01 0. 9.
 1000024    2    4    0    0    0  1.7691731019E+02  3.8888654735E+02 -1.2692512847E+01  5.0504812156E+02  2.6903535800E+02 0. 9.
      -2    1    4    0    0  102  9.8048354157E+00  1.0701852233E+01 -1.5289887167E+02  1.5358658241E+02  3.3000000000E-01 0. 9.
       1    1    4    0  101    0 -2.4563593466E+02 -2.1337550625E+01  1.4783815898E+02  2.8748657989E+02  3.3000000000E-01 0. 9.
      -1    1    6    0    0  103 -1.4145244475E+01 -5.5207688225E+01  7.3483723934E+01  9.2994318986E+01  3.3000000000E-01 0. 9.
       4    1    6    0  103    0  5.2780589090E+01 -2.7049350298E+01  2.9926695649E+01  6.6447837051E+01  1.5000000000E+00 0. 9.
 1000022    1    7    0    0    0  1.8576250165E+02  2.9356960322E+02  3.2752657201E+01  3.7201430355E+02  1.2896157000E+02 0. 9.
      24    2    7    0    0    0 -8.8451914660E+00  9.5316944136E+01 -4.5445170048E+01  1.3303381801E+02  8.0431188000E+01 0. 9.
      -3    1   13    0    0  104 -4.6696457934E+00  1.0495950757E+02 -5.5143076739E+01  1.1865627979E+02  5.0000000000E-01 0. 9.
       4    1   13    0  104    0 -4.1755456726E+00 -9.6425634332E+00  9.6979066910E+00  1.4377538225E+01  1.5000000000E+00 0. 9.
</event>
<event>
    16   258  1.000000E+00  1.212944E+03  7.994973E-03  9.074841E-02
       2   -1    0    0  101    0  0.0000000000E+00  0.0000000000E+00  2.6076718598E+03  2.6076718598E+03  0.0000000000E+00 0. 9.
      21   -1    0    0  102  101  0.0000000000E+00  0.0000000000E+00 -6.3007742807E+02  6.3007742807E+02  0.0000000000E+00 0. 9.
 1000002    2    1    2  103    0 -6.9321472716E+02 -3.5355397912E+02  4.9745224174E+02  1.3550242033E+03  9.9150632100E+02 0. 9.
 1000021    2    1    2  102  103  6.9321472716E+02  3.5355397912E+02  1.4801421900E+03  1.8827250846E+03  8.6503512500E+02 0. 9.
 1000021    2    3    0  103  104 -6.8216299905E+02 -3.6309847770E+02  5.6194595465E+02  1.2888971585E+03  8.6503512500E+02 0. 9.
       2    1    3    0  104    0 -1.1051728111E+01  9.5444985826E+00 -6.4493712904E+01  6.6127044782E+01  3.3000000000E-01 0. 9.
 1000024    2    4    0    0    0  1.4068180940E+02  8.8108404520E+01  1.2236064907E+02  3.3897878214E+02  2.6903535800E+02 0. 9.
      -4    1    4    0    0  103  4.9588517528E+02  3.5186608168E+01  8.9836675757E+02  1.0267449954E+03  1.5000000000E+00 0. 9.
       3    1    4    0  102    0  5.6647742487E+01  2.3025896643E+02  4.5941478339E+02  5.1700130711E+02  5.0000000000E-01 0. 9.
 1000022    1    5    0    0    0 -1.3393990703E+02 -1.3880010919E+02  5.1461319347E+02  5.6450260799E+02  1.2896157000E+02 0. 9.
       4    1    5    0  103    0 -5.4750421514E+02 -3.0291568105E+02 -1.2088587605E+01  6.2583317215E+02  1.5000000000E+00 0. 9.
      -4    1    5    0    0  104 -7.1887688804E-01  7.8617312530E+01  5.9421348787E+01  9.8561378364E+01  1.5000000000E+00 0. 9.
 1000022    1    7    0    0    0  3.2317055616E+01  1.0684422414E+02  1.0822809802E+02  2.0200120805E+02  1.2896157000E+02 0. 9.
      24    2    7    0    0    0  1.0836475378E+02 -1.8735819623E+01  1.4132551049E+01  1.3697757408E+02  8.0431188000E+01 0. 9.
     -15    1   14    0    0    0  5.2755232095E+01  1.8507874416E+01  3.6055590258E+01  6.6549374503E+01  1.7770000000E+00 0. 9.
      16    1   14    0    0    0  5.5609521686E+01 -3.7243694039E+01 -2.1923039209E+01  7.0428199580E+01  0.0000000000E+00 0. 9.
</event>
<event>
    18   273  1.000000E+00  1.123654E+03  7.987943E-03  9.152333E-02
       2   -1    0    0  101    0  0.0000000000E+00  0.0000000000E+00  8.9201307304E+02  8.9201307304E+02  0.0000000000E+00 0. 9.
       1   -1    0    0  102    0  0.0000000000E+00  0.0000000000E+00 -1.4724969292E+03  1.4724969292E+03  0.0000000000E+00 0. 9.
 2000002    2    1    2  102    0  5.2328826381E+02  5.5631517209E+01 -5.7199835504E+01  1.1237754460E+03  9.9129912700E+02 0. 9.
 1000001    2    1    2  101    0 -5.2328826381E+02 -5.5631517209E+01 -5.2328402065E+02  1.2407345562E+03  9.9431916400E+02 0. 9.
 1000021    2    3    0  102  103  3.4665027932E+02 -1.0990037815E+01 -6.9717097464E+01  9.3457660908E+02  8.6503512500E+02 0. 9.
       2    1    3    0  103    0  1.7663798449E+02  6.6621555024E+01  1.2517261960E+01  1.8919883696E+02  3.3000000000E-01 0. 9.
 1000021    2    4    0  101  104 -5.8739476045E+02 -9.2071751739E+01 -5.0465801130E+02  1.1646781907E+03  8.6503512500E+02 0. 9.
       1    1    4    0  104    0  6.4106496642E+01  3.6440234530E+01 -1.8626009354E+01  7.6056365472E+01  3.3000000000E-01 0. 9.
-1000024    2    5    0    0    0  2.0555034711E+02  3.3016357228E+01 -5.9222846694E+01  3.4529464877E+02  2.6903535800E+02 0. 9.
       2    1    5    0  102    0  2.1844916285E+02 -5.9401287966E+01 -2.4991648470E+02  3.3720454918E+02  3.3000000000E-01 0. 9.
      -1    1    5    0    0  103 -7.7349230642E+01  1.5394892923E+01  2.3942223393E+02  2.5207741114E+02  3.3000000000E-01 0. 9.
 1000022    1    7    0    0    0 -7.1233313072E+01  5.3438394832E+01 -1.1997756211E+02  1.9737160100E+02  1.2896157000E+02 0. 9.
       2    1    7    0  101    0 -2.2325888224E+02 -3.7651413315E+02 -8.9140126258E+00  4.3782072756E+02  3.3000000000E-01 0. 9.
      -2    1    7    0    0  104 -2.9290256514E+02  2.3100398658E+02 -3.7576643656E+02  5.2948586216E+02  3.3000000000E-01 0. 9.
 1000022    1    9    0    0    0  5.7022155547E+01 -4.6001605611E+01 -5.6736670303E+01  1.5880116573E+02  1.2896157000E+02 0. 9.
     -24    2    9    0    0    0  1.4852819156E+02  7.9017962839E+01 -2.4861763910E+00  1.8649348304E+02  8.0431188000E+01 0. 9.
       1    1   16    0  105    0  1.2527812047E+02  7.1566977840E+01  2.8475224490E+01  1.4706252784E+02  3.3000000000E-01 0. 9.
      -2    1   16    0    0  105  2.3250071095E+01  7.4509849988E+00 -3.0961400881E+01  3.9430955199E+01  3.3000000000E-01 0. 9.
</event>
<event>
    24   258  1.000000E+00  1.059845E+03  7.982576E-03  9.212480E-02
      21   -1    0    0  101  102  0.0000000000E+00  0.0000000000E+00  6.1219217043E+02  6.1219217043E+02  0.0000000000E+00 0. 9.
       2   -1    0    0  102    0  0.0000000000E+00  0.0000000000E+00 -2.2357613574E+03  2.2357613574E+03  0.0000000000E+00 0. 9.
 1000021    2    1    2  101  103 -4.5536560335E+02 -2.2411604782E+02 -1.7087745473E+02  1.0173842478E+03  8.6503512500E+02 0. 9.
 1000002    2    1    2  103    0  4.5536560335E+02  2.2411604782E+02 -1.4526917323E+03  1.8305692801E+03  9.9150632100E+02 0. 9.
-1000024    2    3    0    0    0 -1.8369077572E+02 -3.0003862239E+02 -4.2139913374E+02  6.1132865938E+02  2.6903535800E+02 0. 9.
       4    1    3    0  101    0 -2.4682838224E+02  7.0700689231E+01  1.3958242256E+02  2.9224705375E+02  1.5000000000E+00 0. 9.
      -3    1    3    0    0  103 -2.4846445390E+01  5.2218853409E+00  1.1093925646E+02  1.1380853464E+02  5.0000000000E-01 0. 9.
 1000021    2    4    0  103  104  3.3143354937E+02  2.0301044798E+02 -1.0801303288E+03  1.4373686842E+03  8.6503512500E+02 0. 9.
       2    1    4    0  104    0  1.2393205398E+02  2.1105599840E+01 -3.7256140349E+02  3.9320059590E+02  3.3000000000E-01 0. 9.
 1000022    1    5    0    0    0 -1.6437822527E+02 -1.1188444352E+02 -2.1356545056E+02  3.1902918025E+02  1.2896157000E+02 0. 9.
     -24    2    5    0    0    0 -1.9312550450E+01 -1.8815417887E+02 -2.0783368318E+02  2.9229947913E+02  8.0431188000E+01 0. 9.
 1000024    2    8    0    0    0 -6.7082496574E+01 -4.9029276346E+01 -2.5074368296E+02  3.7703627104E+02  2.6903535800E+02 0. 9.
      -6    2    8    0    0  104  2.8048724425E+02 -4.5975062026E+01 -5.0039511247E+02  6.0098278603E+02  1.7320000000E+02 0. 9.
       5    1    8    0  103    0  1.1802880170E+02  2.9801478635E+02 -3.2899153337E+02  4.5934962712E+02  4.8000000000E+00 0. 9.
       1    1   11    0  105    0  1.3967415285E+01 -1.1670874353E+02 -8.0216786802E+01  1.4230552094E+02  3.3000000000E-01 0. 9.
      -2    1   11    0    0  105 -3.3279965736E+01 -7.1445435336E+01 -1.2761689638E+02  1.4999395818E+02  3.3000000000E-01 0. 9.
 1000022    1   12    0    0    0 -1.1525193140E+02 -5.5720273626E+01 -1.2722015690E+02  2.2181932162E+02  1.2896157000E+02 0. 9.
      24    2   12    0    0    0  4.8169434827E+01  6.6909972805E+00 -1.2352352606E+02  1.5521694943E+02  8.0431188000E+01 0. 9.
     -24    2   13    0    0    0  8.6349045318E+01  2.8445684543E+01 -1.4389410728E+02  1.8825515852E+02  8.0431188000E+01 0. 9.
      -5    1   13    0    0  104  1.9413819893E+02 -7.4420746569E+01 -3.5650100520E+02  4.1272762751E+02  4.8000000000E+00 0. 9.
      -3    1   18    0    0  106  1.3497867083E+01 -3.4158372636E+01 -3.0016301390E+01  4.7436433109E+01  5.0000000000E-01 0. 9.
       4    1   18    0  106    0  3.4671567744E+01  4.0849369917E+01 -9.3507224671E+01  1.0778051632E+02  1.5000000000E+00 0. 9.
       3    1   19    0  107    0 -2.8271786215E+00  2.9358037300E+01 -5.4521610079E+01  6.1989864161E+01  5.0000000000E-01 0. 9.
      -4    1   19    0    0  107  8.9176223940E+01 -9.1235275693E-01 -8.9372497198E+01  1.2626529436E+02  1.5000000000E+00 0. 9.
</event>
<event>
    12   226  1.000000E+00  3.404197E+02  7.879733E-03  1.056069E-01
      -2   -1    0    0    0  101  0.0000000000E+00  0.0000000000E+00  9.1709602468E+01  9.1709602468E+01  0.0000000000E+00 0. 9.
       2   -1    0    0  101    0  0.0000000000E+00  0.0000000000E+00 -1.2645761931E+03  1.2645761931E+03  0.0000000000E+00 0. 9.
-1000024    2    1    2    0    0  1.5013196847E+02  1.4479614240E+02 -6.0513744069E+02  6.9431756192E+02  2.6903535800E+02 0. 9.
 1000024    2    1    2    0    0 -1.5013196847E+02 -1.4479614240E+02 -5.6772914995E+02  6.6196823365E+02  2.6903535800E+02 0. 9.
 1000022    1    3    0    0    0  4.9760580239E+01  9.6839627821E+00 -1.5993931350E+02  2.1161655186E+02  1.2896157000E+02 0. 9.
     -24    2    3    0    0    0  1.0037138823E+02  1.3511217962E+02 -4.4519812719E+02  4.8270101006E+02  8.0431188000E+01 0. 9.
 1000022    1    4    0    0    0  3.5875580559E+00 -7.1792448914E+01 -3.0404676106E+02  3.3799784873E+02  1.2896157000E+02 0. 9.
      24    2    4    0    0    0 -1.5371952653E+02 -7.3003693490E+01 -2.6368238888E+02  3.2397038493E+02  8.0431188000E+01 0. 9.
      15    1    6    0    0    0  9.2079133710E+00  7.8816126008E+01 -1.9357369616E+02  2.0921448554E+02  1.7770000000E+00 0. 9.
     -16    1    6    0    0    0  9.1163474862E+01  5.6296053614E+01 -2.5162443103E+02  2.7348652452E+02  0.0000000000E+00 0. 9.
      -3    1    8    0    0  102 -1.3601419001E+01 -9.5499171324E+00  2.2259100065E+00  1.6775106301E+01  5.0000000000E-01 0. 9.
       4    1    8    0  102    0 -1.4011810753E+02 -6.3453776357E+01 -2.6590829889E+02  3.0719527863E+02  1.5000000000E+00 0. 9.
</event>
<event>
    12   226  1.000000E+00  2.709399E+02  7.859380E-03  1.088077E-01
      -2   -1    0    0    0  101  0.0000000000E+00  0.0000000000E+00  1.8701521166E+03  1.8701521166E+03  0.0000000000E+00 0. 9.
       2   -1    0    0  101    0  0.0000000000E+00  0.0000000000E+00 -4.7637407465E+01  4.7637407465E+01  0.0000000000E+00 0. 9.
-1000024    2    1    2    0    0  3.2037200331E+01 -1.4217615173E+00  1.3135500305E+03  1.3412017410E+03  2.6903535800E+02 0. 9.
 1000024    2    1    2    0    0 -3.2037200331E+01  1.4217615173E+00  5.0896467861E+02  5.7658778303E+02  2.6903535800E+02 0. 9.
 1000022    1    3    0    0    0 -3.2882144540E+01  1.8484919605E+01  1.0303145179E+03  1.0390389887E+03  1.2896157000E+02 0. 9.
     -24    2    3    0    0    0  6.4919344870E+01 -1.9906681122E+01  2.8323551264E+02  3.0216275237E+02  8.0431188000E+01 0. 9.
 1000022    1    4    0    0    0 -5.4757609823E+01 -4.1710976582E+00  4.5700118143E+02  4.7801355656E+02  1.2896157000E+02 0. 9.
      24    2    4    0    0    0  2.2720409493E+01  5.5928591755E+00  5.1963497175E+01  9.8574226464E+01  8.0431188000E+01 0. 9.
       3    1    6    0  102    0 -5.9939210205E+00 -2.8080305541E+01  1.2965341995E+02  1.3279566993E+02  5.0000000000E-01 0. 9.
      -4    1    6    0    0  102  7.0913265891E+01  8.1736244190E+00  1.5358209270E+02  1.6936708244E+02  1.5000000000E+00 0. 9.
      -1    1    8    0    0  103  1.4766501080E+01  2.7121276694E+01 -1.0028081214E+01  3.2469747712E+01  3.3000000000E-01 0. 9.
       2    1    8    0  103    0  7.9539084129E+00 -2.1528417519E+01  6.1991578389E+01  6.6104478752E+01  3.3000000000E-01 0. 9.
</event>
<event>
    12   230  1.000000E+00  2.952359E+02  7.867024E-03  1.075811E-01
       2   -1    0    0  101    0  0.0000000000E+00  0.0000000000E+00  1.0413514915E+03  1.0413514915E+03  0.0000000000E+00 0. 9.
      -1   -1    0    0    0  101  0.0000000000E+00  0.0000000000E+00 -8.3723060664E+01  8.3723060664E+01  0.0000000000E+00 0. 9.
 1000024    2    1    2    0    0 -1.5910575253E+01 -1.2070385569E+02  4.8762944536E+02  5.7007461531E+02  2.6903535800E+02 0. 9.
 1000023    2    1    2    0    0  1.5910575253E+01  1.2070385569E+02  4.6999898549E+02  5.5499993687E+02  2.6889276000E+02 0. 9.
 1000022    1    3    0    0    0 -6.7249752658E+01 -1.0615144099E+02  4.0420195883E+02  4.4249403128E+02  1.2896157000E+02 0. 9.
      24    2    3    0    0    0  5.1339177404E+01 -1.4552414698E+01  8.3427486531E+01  1.2758058403E+02  8.0431188000E+01 0. 9.
 1000022    1    4    0    0    0 -9.9933560409E+00  4.5448917155E+01  1.6029377863E+02  2.1092807599E+02  1.2896157000E+02 0. 9.
      25    2    4    0    0    0  2.5903931294E+01  7.5254938533E+01  3.0970520685E+02  3.4407186088E+02  1.2701893900E+02 0. 9.
     -15    1    6    0    0    0  4.0904606947E+01 -2.5760342766E+01  6.1053869448E+00  4.8756698080E+01  1.7770000000E+00 0. 9.
      16    1    6    0    0    0  1.0434570457E+01  1.1207928068E+01  7.7322099587E+01  7.8823885953E+01  0.0000000000E+00 0. 9.
       5    1    8    0  102    0 -2.4426740802E+01 -1.6863779139E+01  1.4939841341E+02  1.5239415554E+02  4.8000000000E+00 0. 9.
      -5    1    8    0    0  102  5.0330672096E+01  9.2118717671E+01  1.6030679344E+02  1.9167770534E+02  4.8000000000E+00 0. 9.
</event>
<event>
    15   272  1.000000E+00  1.104555E+03  7.986368E-03  9.169889E-02
       2   -1    0    0  101    0  0.0000000000E+00  0.0000000000E+00  7.2142550730E+02  7.2142550730E+02  0.0000000000E+00 0. 9.
       2   -1    0    0  102    0  0.0000000000E+00  0.0000000000E+00 -2.6984151483E+03  2.6984151483E+03  0.0000000000E+00 0. 9.
 2000002    2    1    2  101    0  3.5371712303E+02 -3.3503872057E+02 -2.0331977446E+03  2.3138569046E+03  9.9129912700E+02 0. 9.
 2000002    2    1    2  102    0 -3.5371712303E+02  3.3503872057E+02  5.6208103525E+01  1.1059837510E+03  9.9129912700E+02 0. 9.
 1000022    1    3    0    0    0  4.4250297045E+02 -6.0626795352E+02 -1.7646756969E+03  1.9219992487E+03  1.2896157000E+02 0. 9.
       2    1    3    0  101    0 -8.8785847425E+01  2.7122923295E+02 -2.6852204766E+02  3.9185765590E+02  3.3000000000E-01 0. 9.
 1000021    2    4    0  102  103 -2.4764682034E+02  3.8214941886E+02  9.8344748088E+01  9.8250932969E+02  8.6503512500E+02 0. 9.
       2    1    4    0  103    0 -1.0607030268E+02 -4.7110698296E+01 -4.2136644562E+01  1.2347442132E+02  3.3000000000E-01 0. 9.
 1000023    2    7    0    0    0  9.9324799194E+01 -8.1797146839E+00 -1.5403223876E+02  3.2551738882E+02  2.6889276000E+02 0. 9.
       2    1    7    0  102    0 -1.2909847822E+02  3.4417597705E+02  2.2893612373E+02  4.3305355085E+02  3.3000000000E-01 0. 9.
      -2    1    7    0    0  103 -2.1787314131E+02  4.6153156502E+01  2.3440863112E+01  2.2393839002E+02  3.3000000000E-01 0. 9.
 1000022    1    9    0    0    0  4.3087539841E+01 -2.1278328955E+01 -3.4729072534E+01  1.4193836123E+02  1.2896157000E+02 0. 9.
      25    2    9    0    0    0  5.6237259353E+01  1.3098614272E+01 -1.1930316622E+02  1.8357902759E+02  1.2701893900E+02 0. 9.
       5    1   13    0  104    0 -2.8063720912E+01 -1.3414138145E+01  4.0805669503E+00  3.1736454752E+01  4.8000000000E+00 0. 9.
      -5    1   13    0    0  104  8.4300980265E+01  2.6512752417E+01 -1.2338373317E+02  1.5184257284E+02  4.8000000000E+00 0. 9.
</event>
<event>
    12   226  1.000000E+00  5.584857E+02  7.924234E-03  9.927402E-02
       1   -1    0    0  101    0  0.0000000000E+00  0.0000000000E+00  3.7747509711E+02  3.7747509711E+02  0.0000000000E+00 0. 9.
      -1   -1    0    0    0  101  0.0000000000E+00  0.0000000000E+00 -9.6354096481E+02  9.6354096481E+02  0.0000000000E+00 0. 9.
-1000024    2    1    2    0    0 -7.5817185954E+01 -4.8350598480E+02 -5.4608885208E+02  7.8110136426E+02  2.6903535800E+02 0. 9.
 1000024    2    1    2    0    0  7.5817185954E+01  4.8350598480E+02 -3.9977015620E+01  5.5991469766E+02  2.6903535800E+02 0. 9.
 1000022    1    3    0    0    0 -9.3041962029E+00 -4.1226657652E+02 -4.2703029742E+02  6.0748354680E+02  1.2896157000E+02 0. 9.
     -24    2    3    0    0    0 -6.6512989751E+01 -7.1239408287E+01 -1.1905855466E+02  1.7361781746E+02  8.0431188000E+01 0. 9.
 1000022    1    4    0    0    0  6.9686673524E+01  1.9365654011E+02 -8.1522186650E+01  2.5619531894E+02  1.2896157000E+02 0. 9.
      24    2    4    0    0    0  6.1305124306E+00  2.8984944470E+02  4.1545171031E+01  3.0371937872E+02  8.0431188000E+01 0. 9.
       3    1    6    0  102    0 -7.9424145540E+01 -4.6312617084E+01 -6.4715453009E+01  1.1243395063E+02  5.0000000000E-01 0. 9.
      -4    1    6    0    0  102  1.2911155788E+01 -2.4926791203E+01 -5.4343101647E+01  6.1183866828E+01  1.5000000000E+00 0. 9.
     -15    1    8    0    0    0 -9.8567153236E+00  9.0849307544E+01 -2.2368095207E+01  9.4096976202E+01  1.7770000000E+00 0. 9.
      16    1    8    0    0    0  1.5987227754E+01  1.9900013715E+02  6.3913266237E+01  2.0962240252E+02  0.0000000000E+00 0. 9.
</event>
<event>
    20   259  1.000000E+00  1.101283E+03  7.986096E-03  9.172933E-02
      21   -1    0    0  101  102  0.0000000000E+00  0.0000000000E+00  9.0251061815E+02  9.0251061815E+02  0.0000000000E+00 0. 9.
       1   -1    0    0  102    0  0.0000000000E+00  0.0000000000E+00 -1.3431229728E+03  1.3431229728E+03  0.0000000000E+00 0. 9.
 1000021    2    1    2  101  103 -5.0256891424E+02  3.0719032611E+02 -1.6167081287E+02  1.0589450549E+03  8.6503512500E+02 0. 9.
 2000001    2    1    2  103    0  5.0256891424E+02 -3.0719032611E+02 -2.7894154181E+02  1.1866885361E+03  9.9170554500E+02 0. 9.
-1000024    2    3    0    0    0  3.5614054957E+01  2.3881842544E+02 -4.9178466537E+01  3.6483029845E+02  2.6903535800E+02 0. 9.
       4    1    3    0  101    0 -5.8068980513E+02 -6.0427513130E+00 -4.0404808140E+01  5.8212710222E+02  1.5000000000E+00 0. 9.
      -3    1    3    0    0  103  4.2506835931E+01  7.4414651979E+01 -7.2087538190E+01  1.1198765420E+02  5.0000000000E-01 0. 9.
 1000021    2    4    0  103  104  4.2331565004E+02 -2.3138239461E+02 -1.2593863296E+02  9.9843891093E+02  8.6503512500E+02 0. 9.
       1    1    4    0  104    0  7.9253264197E+01 -7.5807931500E+01 -1.5300290885E+02  1.8824962518E+02  3.3000000000E-01 0. 9.
 1000022    1    5    0    0    0  1.0420734278E+01  2.2649609406E+02  1.0120976362E+01  2.6104136268E+02  1.2896157000E+02 0. 9.
     -24    2    5    0    0    0  2.5193320679E+01  1.2322331378E+01 -5.9299442899E+01  1.0378893577E+02  8.0431188000E+01 0. 9.
-1000024    2    8    0    0    0  1.6333960187E+02 -1.4998196186E+02  4.0038775237E+01  3.5093808827E+02  2.6903535800E+02 0. 9.
       4    1    8    0  103    0  1.5170907117E+02 -3.1480478262E+02 -1.6295967359E+01  3.4983639318E+02  1.5000000000E+00 0. 9.
      -3    1    8    0    0  104  1.0826697700E+02  2.3340434988E+02 -1.4968144084E+02  2.9766442948E+02  5.0000000000E-01 0. 9.
      13    1   11    0    0    0 -2.5433298969E+01  6.5870326244E+00 -4.2824066136E+01  5.0240954407E+01  1.0566000000E-01 0. 9.
     -14    1   11    0    0    0  5.0626619648E+01  5.7352987540E+00 -1.6475376763E+01  5.3547981365E+01  0.0000000000E+00 0. 9.
 1000022    1   12    0    0    0  7.3931126548E+01 -7.9161057465E+01 -6.0477017075E+01  1.7894368003E+02  1.2896157000E+02 0. 9.
     -24    2   12    0    0    0  8.9408475323E+01 -7.0820904396E+01  1.0051579231E+02  1.7199440824E+02  8.0431188000E+01 0. 9.
       1    1   18    0  105    0  8.6153074097E+00 -4.1634037739E+01  6.7863479083E+01  8.0082315860E+01  3.3000000000E-01 0. 9.
      -4    1   18    0    0  105  8.0793167914E+01 -2.9186866657E+01  3.2652313229E+01  9.1912092382E+01  1.5000000000E+00 0. 9.
</event>
<event>
    12   226  1.000000E+00  3.227750E+02  7.874978E-03  1.063362E-01
      -2   -1    0    0    0  101  0.0000000000E+00  0.0000000000E+00  1.5614378180E+02  1.5614378180E+02  0.0000000000E+00 0. 9.
       2   -1    0    0  101    0  0.0000000000E+00  0.0000000000E+00 -7.0616965262E+02  7.0616965262E+02  0.0000000000E+00 0. 9.
-1000024    2    1    2    0    0  1.7822453331E+02  6.3011445558E+00 -3.7625951163E+02  4.9573675740E+02  2.6903535800E+02 0. 9.
 1000024    2    1    2    0    0 -1.7822453331E+02 -6.3011445558E+00 -1.7376635920E+02  3.6657667702E+02  2.6903535800E+02 0. 9.
 1000022    1    3    0    0    0  5.4344870750E+01 -5.4734236033E+01 -2.5158094419E+02  2.9304139569E+02  1.2896157000E+02 0. 9.
     -24    2    3    0    0    0  1.2387966256E+02  6.1035380589E+01 -1.2467856744E+02  2.0269536172E+02  8.0431188000E+01 0. 9.
 1000022    1    4    0    0    0 -1.9727861204E+02 -2.1830879168E+01 -1.0987994954E+02  2.6096001207E+02  1.2896157000E+02 0. 9.
      24    2    4    0    0    0  1.9054078731E+01  1.5529734613E+01 -6.3886409660E+01  1.0561666495E+02  8.0431188000E+01 0. 9.
       3    1    6    0  102    0  5.5242722245E+01  4.7577705650E+01 -1.0880207003E+02  1.3097151171E+02  5.0000000000E-01 0. 9.
      -2    1    6    0    0  102  6.8636940313E+01  1.3457674939E+01 -1.5876497412E+01  7.1723850011E+01  3.3000000000E-01 0. 9.
     -11    1    8    0    0    0 -2.3611669672E+01 -1.8120857958E+01 -2.2837252266E+01  3.7515550498E+01  5.1000000000E-04 0. 9.
      12    1    8    0    0    0  4.2665748404E+01  3.3650592571E+01 -4.1049157394E+01  6.8101114455E+01  0.0000000000E+00 0. 9.
</event>
<event>
    12   230  1.000000E+00  3.067904E+02  7.870446E-03  1.070417E-01
       2   -1    0    0  101    0  0.0000000000E+00  0.0000000000E+00  1.0939857989E+03  1.0939857989E+03  0.0000000000E+00 0. 9.
      -1   -1    0    0    0  101  0.0000000000E+00  0.0000000000E+00 -1.5388166137E+02  1.5388166137E+02  0.0000000000E+00 0. 9.
 1000024    2    1    2    0    0 -1.3975395343E+02 -4.7408158393E+01  8.8440216546E+02  9.3612280984E+02  2.6903535800E+02 0. 9.
 1000023    2    1    2    0    0  1.3975395343E+02  4.7408158393E+01  5.5701972049E+01  3.1174465040E+02  2.6889276000E+02 0. 9.
 1000022    1    3    0    0    0 -9.3702943782E+01 -1.1084922966E+02  5.8233061705E+02  6.1384674592E+02  1.2896157000E+02 0. 9.
      24    2    3    0    0    0 -4.6051009650E+01  6.3441071267E+01  3.0207154841E+02  3.2227606392E+02  8.0431188000E+01 0. 9.
 1000022    1    4    0    0    0  1.0180249427E+02  4.6686142050E+01  5.4090970990E+01  1.7916546369E+02  1.2896157000E+02 0. 9.
      25    2    4    0    0    0  3.7951459165E+01  7.2201634373E-01  1.6110010586E+00  1.3257918671E+02  1.2701893900E+02 0. 9.
     -11    1    6    0    0    0 -2.3593327966E+00  1.2003356530E+01 -5.2536156348E-01  1.2244305789E+01  5.1000000000E-04 0. 9.
      12    1    6    0    0    0 -4.3691676854E+01  5.1437714737E+01  3.0259690997E+02  3.1003175813E+02  0.0000000000E+00 0. 9.
       5    1    8    0  102    0  6.3483025812E+01 -8.0242054976E+00  4.7010791948E+01  7.9545816984E+01  4.8000000000E+00 0. 9.
      -5    1    8    0    0  102 -2.5531566647E+01  8.7462218414E+00 -4.5399790890E+01  5.3033369729E+01  4.8000000000E+00 0. 9.
</event>
<event>
    12   226  1.000000E+00  3.260718E+02  7.875886E-03  1.061962E-01
      -2   -1    0    0    0  101  0.0000000000E+00  0.0000000000E+00  2.3456433023E+02  2.3456433023E+02  0.0000000000E+00 0. 9.
       2   -1    0    0  101    0  0.0000000000E+00  0.0000000000E+00 -5.8626326832E+02  5.8626326832E+02  0.0000000000E+00 0. 9.
-1000024    2    1    2    0    0  1.7982168071E+02 -4.0087227770E+01  1.9619312832E+01  3.2666154346E+02  2.6903535800E+02 0. 9.
 1000024    2    1    2    0    0 -1.7982168071E+02  4.0087227770E+01 -3.7131825092E+02  4.9416605509E+02  2.6903535800E+02 0. 9.
 1000022    1    3    0    0    0  2.8636830545E+01  2.0885960514E+01 -3.2347407832E+01  1.3759990095E+02  1.2896157000E+02 0. 9.
     -24    2    3    0    0    0  1.5118485017E+02 -6.0973188285E+01  5.1966720664E+01  1.8906164251E+02  8.0431188000E+01 0. 9.
 1000022    1    4    0    0    0 -1.6379428893E+02 -2.3087182937E+01 -3.0858504113E+02  3.7311848151E+02  1.2896157000E+02 0. 9.
      24    2    4    0    0    0 -1.6027391780E+01  6.3174410707E+01 -6.2733209796E+01  1.2104757358E+02  8.0431188000E+01 0. 9.
       3    1    6    0  102    0  4.6642200407E+01  8.7363011241E+00 -1.0690628450E+01  4.8645219218E+01  5.0000000000E-01 0. 9.
      -4    1    6    0    0  102  1.0454264976E+02 -6.9709489409E+01  6.2657349115E+01  1.4041642329E+02  1.5000000000E+00 0. 9.
     -13    1    8    0    0    0 -1.9154217876E+01  4.5924880166E+00  1.4211967620E+01  2.4289219755E+01  1.0566000000E-01 0. 9.
      14    1    8    0    0    0  3.1268260959E+00  5.8581922690E+01 -7.6945177416E+01  9.6758353826E+01  0.0000000000E+00 0. 9.
</event>
<event>
    12   226  1.000000E+00  3.387390E+02  7.879291E-03  1.056743E-01
      -2   -1    0    0    0  101  0.0000000000E+00  0.0000000000E+00  1.1386785323E+02  1.1386785323E+02  0.0000000000E+00 0. 9.
       2   -1    0    0  101    0  0.0000000000E+00  0.0000000000E+00 -1.1850165827E+03  1.1850165827E+03  0.0000000000E+00 0. 9.
-1000024    2    1    2    0    0  1.9599949337E+02 -6.2835402322E+01 -2.8435182563E+02  4.4226697116E+02  2.6903535800E+02 0. 9.
 1000024    2    1    2    0    0 -1.9599949337E+02  6.2835402322E+01 -7.8679690381E+02  8.5661746473E+02  2.6903535800E+02 0. 9.
 1000022    1    3    0    0    0  2.0883136429E+02 -4.9202858604E+01 -2.4686728441E+02  3.5157645350E+02  1.2896157000E+02 0. 9.
     -24    2    3    0    0    0 -1.2831870928E+01 -1.3632543718E+01 -3.7484541226E+01  9.0690517662E+01  8.0431188000E+01 0. 9.
 1000022    1    4    0    0    0 -1.9153365430E+02  7.8626869100E+01 -4.7211241121E+02  5.3140242813E+02  1.2896157000E+02 0. 9.
      24    2    4    0    0    0 -4.4658390658E+00 -1.5791466778E+01 -3.1468449260E+02  3.2521503660E+02  8.0431188000E+01 0. 9.
      11    1    6    0    0    0 -3.7313101192E+01 -2.7910906903E+01 -3.9206022789E+00  4.6761708343E+01  5.1000000000E-04 0. 9.
     -12    1    6    0    0    0  2.4481230264E+01  1.4278363185E+01 -3.3563938947E+01  4.3928809319E+01  0.0000000000E+00 0. 9.
     -15    1    8    0    0    0 -3.7244211551E+01 -1.3360998330E+01 -9.2654431078E+01  1.0076531595E+02  1.7770000000E+00 0. 9.
      16    1    8    0    0    0  3.2778372486E+01 -2.4304684483E+00 -2.2203006152E+02  2.2444972065E+02  0.0000000000E+00 0. 9.
</event>
<event>
    23   284  1.000000E+00  1.227696E+03  7.996085E-03  9.062709E-02
       5   -1    0    0  101    0  0.0000000000E+00  0.0000000000E+00  1.5328947939E+03  1.5328947939E+03  0.0000000000E+00 0. 9.
      -2   -1    0    0    0  101  0.0000000000E+00  0.0000000000E+00 -1.0422964530E+03  1.0422964530E+03  0.0000000000E+00 0. 9.
 1000005    2    1    2  102    0 -7.2499993666E+02  1.7279065718E+02 -6.3800283706E+01  1.2165433386E+03  9.5938819000E+02 0. 9.
-1000002    2    1    2    0  102  7.2499993666E+02 -1.7279065718E+02  5.5439862457E+02  1.3586479084E+03  9.9150632100E+02 0. 9.
-1000024    2    3    0    0    0 -4.7819000598E+02 -1.6345603127E+02 -3.6014373021E+02  6.7636313194E+02  2.6903535800E+02 0. 9.
       6    2    3    0  102    0 -2.4680993068E+02  3.3624668845E+02  2.9634344651E+02  5.4018020666E+02  1.7320000000E+02 0. 9.
 1000021    2    4    0  103  102  5.3402344506E+02 -1.5736556395E+02  5.5109589444E+02  1.1670207423E+03  8.6503512500E+02 0. 9.
      -2    1    4    0    0  103  1.9097649160E+02 -1.5425093231E+01  3.3027301216E+00  1.9162716606E+02  3.3000000000E-01 0. 9.
 1000022    1    5    0    0    0 -3.7823444257E+02 -5.3053788171E+01 -2.4716978522E+02  4.7286360322E+02  1.2896157000E+02 0. 9.
     -24    2    5    0    0    0 -9.9955563406E+01 -1.1040224310E+02 -1.1297394499E+02  2.0349952872E+02  8.0431188000E+01 0. 9.
      24    2    6    0    0    0 -2.1230207818E+02  3.3778354725E+02  2.9928305638E+02  5.0518256208E+02  8.0431188000E+01 0. 9.
       5    1    6    0  102    0 -3.4507852507E+01 -1.5368588014E+00 -2.9396098749E+00  3.4997644576E+01  4.8000000000E+00 0. 9.
 1000024    2    7    0    0    0  6.4933497910E+02 -1.6452110873E+02  2.4991624958E+02  7.6389872755E+02  2.6903535800E+02 0. 9.
      -4    1    7    0    0  102  2.5873707269E+01  9.6718009418E+01  9.9673514047E+01  1.4128298368E+02  1.5000000000E+00 0. 9.
       3    1    7    0  103    0 -1.4118524130E+02 -8.9562464636E+01  2.0150613082E+02  2.6183903107E+02  5.0000000000E-01 0. 9.
      11    1   10    0    0    0 -6.2717276009E+01 -2.0574958338E+01 -7.2853822291E+01  9.8308011084E+01  5.1000000000E-04 0. 9.
     -12    1   10    0    0    0 -3.7238287397E+01 -8.9827284763E+01 -4.0120122700E+01  1.0519151763E+02  0.0000000000E+00 0. 9.
      -1    1   11    0    0  104 -7.7169474834E+01  1.7501426874E+02  1.7824724323E+02  2.6145231062E+02  3.3000000000E-01 0. 9.
       2    1   11    0  104    0 -1.3513260334E+02  1.6276927851E+02  1.2103581315E+02  2.4373025146E+02  3.3000000000E-01 0. 9.
 1000022    1   13    0    0    0  2.2394510111E+02 -7.2301676187E+01  3.1149333924E+01  2.7014867801E+02  1.2896157000E+02 0. 9.
      24    2   13    0    0    0  4.2538987799E+02 -9.2219432544E+01  2.1876691565E+02  4.9375004954E+02  8.0431188000E+01 0. 9.
      -3    1   21    0    0  105  2.1707457802E+02 -1.3085679159E+01  1.3333730707E+02  2.5509154215E+02  5.0000000000E-01 0. 9.
       4    1   21    0  105    0  2.0831529997E+02 -7.9133753386E+01  8.5429608587E+01  2.3865850739E+02  1.5000000000E+00 0. 9.
</event>
<event>
    16   271  1.000000E+00  1.067134E+03  7.983205E-03  9.205388E-02
       2   -1    0    0  101    0  0.0000000000E+00  0.0000000000E+00  8.6504087416E+02  8.6504087416E+02  0.0000000000E+00 0. 9.
       2   -1    0    0  102    0  0.0000000000E+00  0.0000000000E+00 -1.5215834640E+03  1.5215834640E+03  0.0000000000E+00 0. 9.
 1000002    2    1    2  102    0  1.1862206071E+02 -3.7632355504E+02  1.0988980022E+02  1.0727773134E+03  9.9150632100E+02 0. 9.
 1000002    2    1    2  101    0 -1.1862206071E+02  3.7632355504E+02 -7.6643239006E+02  1.3138470248E+03  9.9150632100E+02 0. 9.
 1000023    2    3    0    0    0  3.1603500991E+02  6.5757192022E+01  3.3644242181E+02  5.3823689521E+02  2.6889276000E+02 0. 9.
       2    1    3    0  102    0 -1.9741294919E+02 -4.4208074706E+02 -2.2655262159E+02  5.3454041819E+02  3.3000000000E-01 0. 9.
 1000024    2    4    0    0    0 -1.5904927675E+02  5.2670421683E+02 -9.1340037031E+02  1.0997246314E+03  2.6903535800E+02 0. 9.
       1    1    4    0  101    0  4.0427216039E+01 -1.5038066180E+02  1.4696798025E+02  2.1412239341E+02  3.3000000000E-01 0. 9.
 1000022    1    5    0    0    0  2.0472522628E+02  1.4269878949E+01  1.7455817890E+02  2.9869330772E+02  1.2896157000E+02 0. 9.
      25    2    5    0    0    0  1.1130978363E+02  5.1487313073E+01  1.6188424291E+02  2.3954358749E+02  1.2701893900E+02 0. 9.
 1000022    1    7    0    0    0 -3.4253266594E+01  1.3830630188E+02 -2.2947982447E+02  2.9932256144E+02  1.2896157000E+02 0. 9.
      24    2    7    0    0    0 -1.2479601016E+02  3.8839791495E+02 -6.8392054585E+02  8.0040206991E+02  8.0431188000E+01 0. 9.
       5    1   10    0  103    0 -1.7683234043E+01 -1.3293386165E+01  5.2541232746E-02  2.2637438958E+01  4.8000000000E+00 0. 9.
      -5    1   10    0    0  103  1.2899301768E+02  6.4780699238E+01  1.6183170168E+02  2.1690614853E+02  4.8000000000E+00 0. 9.
     -11    1   12    0    0    0 -1.0612399770E+02  1.9984926901E+02 -3.6555496856E+02  4.2992146754E+02  5.1000000000E-04 0. 9.
      12    1   12    0    0    0 -1.8672012456E+01  1.8854864594E+02 -3.1836557728E+02  3.7048060237E+02  0.0000000000E+00 0. 9.
</event>
<event>
    12   226  1.000000E+00  2.885461E+02  7.864983E-03  1.079057E-01
       3   -1    0    0  101    0  0.0000000000E+00  0.0000000000E+00  1.5790031279E+03  1.5790031279E+03  0.0000000000E+00 0. 9.
      -3   -1    0    0    0  101  0.0000000000E+00  0.0000000000E+00 -6.5904473155E+01  6.5904473155E+01  0.0000000000E+00 0. 9.
-1000024    2    1    2    0    0  4.2221266450E+01 -9.5373863606E+01  1.1242899352E+03  1.1607267945E+03  2.6903535800E+02 0. 9.
 1000024    2    1    2    0    0 -4.2221266450E+01  9.5373863606E+01  3.8880871956E+02  4.8418080658E+02  2.6903535800E+02 0. 9.
 1000022    1    3    0    0    0  6.4221338771E+01  1.9526624524E+01  6.2146271762E+02  6.3824185490E+02  1.2896157000E+02 0. 9.
     -24    2    3    0    0    0 -2.2000072321E+01 -1.1490048813E+02  5.0282721758E+02  5.2248493959E+02  8.0431188000E+01 0. 9.
 1000022    1    4    0    0    0 -3.4119056020E+01  1.2046087567E+02  1.6154422181E+02  2.4166620510E+02  1.2896157000E+02 0. 9.
      24    2    4    0    0    0 -8.1022104295E+00 -2.5087012068E+01  2.2726449775E+02  2.4251460148E+02  8.0431188000E+01 0. 9.
       1    1    6    0  102    0  2.3815489236E+01 -1.6560574620E+01  6.1199141385E+01  6.7726464292E+01  3.3000000000E-01 0. 9.
      -2    1    6    0    0  102 -4.5815561558E+01 -9.8339913510E+01  4.4162807620E+02  4.5475847530E+02  3.3000000000E-01 0. 9.
      -3    1    8    0    0  103  2.6246865220E+01 -2.3259119164E+01  1.8354144806E+02  1.8686251019E+02  5.0000000000E-01 0. 9.
       4    1    8    0  103    0 -3.4349075649E+01 -1.8278929038E+00  4.3723049691E+01  5.5652091288E+01  1.5000000000E+00 0. 9.
</event>
<event>
    12   226  1.000000E+00  3.595514E+02  7.884624E-03  1.048681E-01
       2   -1    0    0  101    0  0.0000000000E+00  0.0000000000E+00  1.6191876001E+03  1.6191876001E+03  0.0000000000E+00 0. 9.
      -2   -1    0    0    0  101  0.0000000000E+00  0.0000000000E+00 -1.4966774207E+02  1.4966774207E+02  0.0000000000E+00 0. 9.
 1000024    2    1    2    0    0  2.3312403090E+02  5.0501383650E+01  1.3388611891E+03  1.3862995748E+03  2.6903535800E+02 0. 9.
-1000024    2    1    2    0    0 -2.3312403090E+02 -5.0501383650E+01  1.3065866894E+02  3.8255576738E+02  2.6903535800E+02 0. 9.
 1000022    1    3    0    0    0  1.2122585590E+02 -4.7663813438E+01  8.3173320917E+02  8.5169170773E+02  1.2896157000E+02 0. 9.
      24    2    3    0    0    0  1.1189817500E+02  9.8165197088E+01  5.0712797989E+02  5.3460786702E+02  8.0431188000E+01 0. 9.
 1000022    1    4    0    0    0 -4.9034347614E+01 -6.4138485900E+01  2.1934589482E+01  1.5372158395E+02  1.2896157000E+02 0. 9.
     -24    2    4    0    0    0 -1.8408968328E+02  1.3637102250E+01  1.0872407946E+02  2.2883418343E+02  8.0431188000E+01 0. 9.
     -11    1    6    0    0    0  7.7432664580E+01  1.0813966967E+02  3.8558875524E+02  4.0788318655E+02  5.1000000000E-04 0. 9.
      12    1    6    0    0    0  3.4465510416E+01 -9.9744725846E+00  1.2153922465E+02  1.2672468047E+02  0.0000000000E+00 0. 9.
       3    1    8    0  102    0 -4.8118293415E+01  2.6956962620E+01  1.5401301803E+00  5.5178528395E+01  5.0000000000E-01 0. 9.
      -4    1    8    0    0  102 -1.3597138987E+02 -1.3319860370E+01  1.0718394928E+02  1.7365565504E+02  1.5000000000E+00 0. 9.
</event>
<event>
    12   230  1.000000E+00  3.763812E+02  7.888720E-03  1.042578E-01
       1   -1    0    0  101    0  0.0000000000E+00  0.0000000000E+00  1.1535271354E+02  1.1535271354E+02  0.0000000000E+00 0. 9.
      -2   -1    0    0    0  101  0.0000000000E+00  0.0000000000E+00 -1.2303458516E+03  1.2303458516E+03  0.0000000000E+00 0. 9.
 1000023    2    1    2    0    0  2.6204933695E+02 -2.5519880591E+01 -5.8627254047E+02  6.9666342475E+02  2.6889276000E+02 0. 9.
-1000024    2    1    2    0    0 -2.6204933695E+02  2.5519880591E+01 -5.2872059763E+02  6.4903514043E+02  2.6903535800E+02 0. 9.
 1000022    1    3    0    0    0  1.7394259065E+02 -3.6072042086E+01 -3.0904607612E+02  3.7907490126E+02  1.2896157000E+02 0. 9.
      25    2    3    0    0    0  8.8106746299E+01  1.0552161495E+01 -2.7722646435E+02  3.1758852349E+02  1.2701893900E+02 0. 9.
 1000022    1    4    0    0    0 -5.1399226254E+01 -2.7528330351E+01 -2.4302155468E+02  2.8122989174E+02  1.2896157000E+02 0. 9.
     -24    2    4    0    0    0 -2.1065011069E+02  5.3048210942E+01 -2.8569904296E+02  3.6780524870E+02  8.0431188000E+01 0. 9.
       5    1    6    0  102    0  5.7544339123E+01 -3.5623341768E+01 -2.4304547482E+02  2.5233809913E+02  4.8000000000E+00 0. 9.
      -5    1    6    0    0  102  3.0562407176E+01  4.6175503264E+01 -3.4180989526E+01  6.5250424359E+01  4.8000000000E+00 0. 9.
      13    1    8    0    0    0 -4.4128889199E+00 -2.6085886201E+00  4.9320401619E+00  7.1143873526E+00  1.0566000000E-01 0. 9.
     -14    1    8    0    0    0 -2.0623722177E+02  5.5656799562E+01 -2.9063108312E+02  3.6069086134E+02  0.0000000000E+00 0. 9.
</event>
<event>
    23   279  1.000000E+00  1.029585E+03  7.979919E-03  9.242575E-02
      21   -1    0    0  101  102  0.0000000000E+00  0.0000000000E+00  8.0750834050E+02  8.0750834050E+02  0.0000000000E+00 0. 9.
      21   -1    0    0  103  101  0.0000000000E+00  0.0000000000E+00 -1.3250597090E+03  1.3250597090E+03  0.0000000000E+00 0. 9.
-1000002    2    1    2    0  102 -1.7076019859E+02  2.1863489325E+02 -1.5594310079E+02  1.0413276608E+03  9.9150632100E+02 0. 9.
 1000002    2    1    2  103    0  1.7076019859E+02 -2.1863489325E+02 -3.6160826769E+02  1.0912403886E+03  9.9150632100E+02 0. 9.
-1000024    2    3    0    0    0 -4.7962658096E+02  1.8468299581E+00 -3.1280408163E+02  6.3267012359E+02  2.6903535800E+02 0. 9.
      -1    1    3    0    0  102  3.0886638237E+02  2.1678806329E+02  1.5686098084E+02  4.0865753725E+02  3.3000000000E-01 0. 9.
 1000021    2    4    0  103  104  2.5086740228E+02 -1.3791629787E+02 -3.5309924169E+02  9.7720018456E+02  8.6503512500E+02 0. 9.
       2    1    4    0  104    0 -8.0107203691E+01 -8.0718595381E+01 -8.5090259952E+00  1.1404020408E+02  3.3000000000E-01 0. 9.
 1000022    1    5    0    0    0 -2.9494840568E+02  2.3283932679E+01 -2.8036508943E+02  4.2751885741E+02  1.2896157000E+02 0. 9.
     -24    2    5    0    0    0 -1.8467817528E+02 -2.1437102720E+01 -3.2438992206E+01  2.0515126618E+02  8.0431188000E+01 0. 9.
-1000024    2    7    0    0    0  1.2803382967E+02  2.1421993426E+02  1.0401709281E+01  3.6711178296E+02  2.6903535800E+02 0. 9.
       6    2    7    0  103    0  1.6112355605E+02 -1.5192411623E+02 -2.5276734588E+02  3.7806257227E+02  1.7320000000E+02 0. 9.
      -5    1    7    0    0  104 -3.8289983432E+01 -2.0021211590E+02 -1.1073360509E+02  2.3202582934E+02  4.8000000000E+00 0. 9.
       3    1   10    0  105    0  1.9690382529E+00 -1.3063056507E+01 -1.0781894013E+01  1.7059302314E+01  5.0000000000E-01 0. 9.
      -4    1   10    0    0  105 -1.8664721353E+02 -8.3740462133E+00 -2.1657098193E+01  1.8809196387E+02  1.5000000000E+00 0. 9.
 1000022    1   11    0    0    0  4.6519542287E+01  8.4182044540E+01 -7.0784503070E+01  1.7576181852E+02  1.2896157000E+02 0. 9.
     -24    2   11    0    0    0  8.1514287379E+01  1.3003788972E+02  8.1186212351E+01  1.9134996444E+02  8.0431188000E+01 0. 9.
      24    2   12    0    0    0  1.4611726308E+02 -1.4206991560E+02 -1.3181749439E+02  2.5569345576E+02  8.0431188000E+01 0. 9.
       5    1   12    0  103    0  1.5006292964E+01 -9.8542006332E+00 -1.2094985149E+02  1.2236911651E+02  4.8000000000E+00 0. 9.
      15    1   17    0    0    0 -8.8876318569E+00  3.4713829880E+01  3.9861304188E+01  5.3629481496E+01  1.7770000000E+00 0. 9.
     -16    1   17    0    0    0  9.0401919236E+01  9.5324059844E+01  4.1324908164E+01  1.3772048294E+02  0.0000000000E+00 0. 9.
     -15    1   18    0    0    0  1.4541532117E+02 -1.2228077476E+02 -1.3813350072E+02  2.3490897228E+02  1.7770000000E+00 0. 9.
      16    1   18    0    0    0  7.0194190895E-01 -1.9789140835E+01  6.3160063322E+00  2.0784483478E+01  0.0000000000E+00 0. 9.
</event>
<event>
    12   230  1.000000E+00  3.439326E+02  7.880651E-03  1.054674E-01
      -1   -1    0    0    0  101  0.0000000000E+00  0.0000000000E+00  1.4783948306E+02  1.4783948306E+02  0.0000000000E+00 0. 9.
       2   -1    0    0  101    0  0.0000000000E+00  0.0000000000E+00 -1.6622953513E+03  1.6622953513E+03  0.0000000000E+00 0. 9.
 1000023    2    1    2    0    0  2.1431566455E+02 -4.0926557043E+00 -1.0535417111E+02  3.5965368294E+02  2.6889276000E+02 0. 9.
 1000024    2    1    2    0    0 -2.1431566455E+02  4.0926557043E+00 -1.4091016971E+03  1.4504811514E+03  2.6903535800E+02 0. 9.
 1000022    1    3    0    0    0  1.4083386785E+02 -2.5773381506E+01 -3.6500125668E+01  1.9611677960E+02  1.2896157000E+02 0. 9.
      25    2    3    0    0    0  7.3481796699E+01  2.1680725802E+01 -6.8854045444E+01  1.6353690335E+02  1.2701893900E+02 0. 9.
 1000022    1    4    0    0    0 -1.1169307308E+02  5.5408071440E+01 -5.1224087324E+02  5.4274044967E+02  1.2896157000E+02 0. 9.
      24    2    4    0    0    0 -1.0262259147E+02 -5.1315415736E+01 -8.9686082388E+02  9.0774070174E+02  8.0431188000E+01 0. 9.
       5    1    6    0  102    0  4.7073243290E+01 -1.5163503965E+01  2.7610805057E+01  5.6843809181E+01  4.8000000000E+00 0. 9.
      -5    1    6    0    0  102  2.6408553409E+01  3.6844229767E+01 -9.6464850501E+01  1.0669309417E+02  4.8000000000E+00 0. 9.
     -15    1    8    0    0    0  2.3765301934E+00 -3.2523152806E+01 -2.5391776031E+02  2.5600935548E+02  1.7770000000E+00 0. 9.
      16    1    8    0    0    0 -1.0499912167E+02 -1.8792262930E+01 -6.4294306358E+02  6.5173134626E+02  0.0000000000E+00 0. 9.
</event>
<event>
    12   230  1.000000E+00  2.694139E+02  7.858878E-03  1.088893E-01
       2   -1    0    0  101    0  0.0000000000E+00  0.0000000000E+00  6.6195480296E+02  6.6195480296E+02  0.0000000000E+00 0. 9.
      -1   -1    0    0    0  101  0.0000000000E+00  0.0000000000E+00 -1.4160522763E+02  1.4160522763E+02  0.0000000000E+00 0. 9.
 1000024    2    1    2    0    0  8.3113955316E+00 -1.3155748308E+01  6.9368081339E+01  2.7826984668E+02  2.6903535800E+02 0. 9.
 1000023    2    1    2    0    0 -8.3113955316E+00  1.3155748308E+01  4.5098149399E+02  5.2529018391E+02  2.6889276000E+02 0. 9.
 1000022    1    3    0    0    0  2.3977717777E+01 -1.4973129036E+01  1.2290043081E+02  1.8037385612E+02  1.2896157000E+02 0. 9.
      24    2    3    0    0    0 -1.5666322245E+01  1.8173807274E+00 -5.3532349466E+01  9.7895990561E+01  8.0431188000E+01 0. 9.
 1000022    1    4    0    0    0 -3.2729991724E+01  3.2699900416E+01  2.5850596042E+02  2.9256957113E+02  1.2896157000E+02 0. 9.
      25    2    4    0    0    0  2.4418596192E+01 -1.9544152108E+01  1.9247553358E+02  2.3272061278E+02  1.2701893900E+02 0. 9.
      -1    1    6    0    0  102 -1.3415050189E+01  2.9564153401E+01 -6.0973496356E+01  6.9078787596E+01  3.3000000000E-01 0. 9.
       2    1    6    0  102    0 -2.2512720558E+00 -2.7746772673E+01  7.4411468898E+00  2.8817202964E+01  3.3000000000E-01 0. 9.
       5    1    8    0  103    0  2.0183221146E+01 -5.4894061950E+01  2.9213827274E+01  6.5553094185E+01  4.8000000000E+00 0. 9.
      -5    1    8    0    0  103  4.2353750457E+00  3.5349909842E+01  1.6326170630E+02  1.6716751859E+02  4.8000000000E+00 0. 9.
</event>
<event>
     8   272  1.000000E+00  1.022453E+03  7.979282E-03  9.249827E-02
       2   -1    0    0  101    0  0.0000000000E+00  0.0000000000E+00  8.1337898619E+02  8.1337898619E+02  0.0000000000E+00 0. 9.
       2   -1    0    0  102    0  0.0000000000E+00  0.0000000000E+00 -1.5735897281E+03  1.5735897281E+03  0.0000000000E+00 0. 9.
 2000002    2    1    2  102    0  2.4580682241E+02 -4.8107570430E+01  1.3076451288E+02  1.0307806019E+03  9.9129912700E+02 0. 9.
 2000002    2    1    2  101    0 -2.4580682241E+02  4.8107570430E+01 -8.9097525476E+02  1.3561881123E+03  9.9129912700E+02 0. 9.
 1000022    1    3    0    0    0  3.8679246756E+02  2.1103782441E+02  4.1664486614E+02  6.1997532799E+02  1.2896157000E+02 0. 9.
       2    1    3    0  102    0 -1.4098564515E+02 -2.5914539484E+02 -2.8588035326E+02  4.1080527393E+02  3.3000000000E-01 0. 9.
 1000022    1    4    0    0    0  3.4989917527E+02  1.0507026899E+02 -5.3278521932E+02  6.5875668554E+02  1.2896157000E+02 0. 9.
       2    1    4    0  101    0 -5.9570599768E+02 -5.6962698565E+01 -3.5819003544E+02  6.9743142680E+02  3.3000000000E-01 0. 9.
</event>
<event>
    12   230  1.000000E+00  3.185370E+02  7.873798E-03  1.065189E-01
       2   -1    0    0  101    0  0.0000000000E+00  0.0000000000E+00  2.7734671714E+02  2.7734671714E+02  0.0000000000E+00 0. 9.
      -1   -1    0    0    0  101  0.0000000000E+00  0.0000000000E+00 -3.9336420583E+02  3.9336420583E+02  0.0000000000E+00 0. 9.
 1000024    2    1    2    0    0 -5.8653841386E+01 -1.6026185355E+02 -1.4672003768E+02  3.5075764870E+02  2.6903535800E+02 0. 9.
 1000023    2    1    2    0    0  5.8653841386E+01  1.6026185355E+02  3.0702548991E+01  3.1995327426E+02  2.6889276000E+02 0. 9.
 1000022    1    3    0    0    0 -1.1766764884E+02 -1.1393977957E+02 -1.0097075009E+02  2.3163360694E+02  1.2896157000E+02 0. 9.
      24    2    3    0    0    0  5.9013807456E+01 -4.6322073981E+01 -4.5749287589E+01  1.1912404176E+02  8.0431188000E+01 0. 9.
 1000022    1    4    0    0    0  1.0178233230E+02  7.7169079172E+01 -1.3449616576E+01  1.8200738631E+02  1.2896157000E+02 0. 9.
      23    2    4    0    0    0 -4.3128490917E+01  8.3092774383E+01  4.4152165566E+01  1.3794588795E+02  9.1187600000E+01 0. 9.
     -11    1    6    0    0    0  3.0460350675E+01  4.1466905773E+00  1.5798477484E+01  3.4563273819E+01  5.1000000000E-04 0. 9.
      12    1    6    0    0    0  2.8553456781E+01 -5.0468764559E+01 -6.1547765072E+01  8.4560767946E+01  0.0000000000E+00 0. 9.
      15    1    8    0    0    0  2.3732316053E+01  5.1420388320E+01  1.7838474010E+01  5.9402424565E+01  1.7770000000E+00 0. 9.
     -15    1    8    0    0    0 -6.6860806970E+01  3.1672386062E+01  2.6313691557E+01  7.8543463381E+01  1.7770000000E+00 0. 9.
</event>
<event>
    12   230  1.000000E+00  3.619441E+02  7.885217E-03  1.047791E-01
       2   -1    0    0  101    0  0.0000000000E+00  0.0000000000E+00  9.3977060120E+02  9.3977060120E+02  0.0000000000E+00 0. 9.
      -1   -1    0    0    0  101  0.0000000000E+00  0.0000000000E+00 -1.9856128423E+02  1.9856128423E+02  0.0000000000E+00 0. 9.
 1000024    2    1    2    0    0 -2.7488537403E+01 -2.4063722921E+02  6.8132196316E+02  7.7151898040E+02  2.6903535800E+02 0. 9.
 1000023    2    1    2    0    0  2.7488537403E+01  2.4063722921E+02  5.9887353802E+01  3.6681290503E+02  2.6889276000E+02 0. 9.
 1000022    1    3    0    0    0  2.6358190592E+01 -5.6752991892E+01  3.7406904761E+02  4.0059255512E+02  1.2896157000E+02 0. 9.
      24    2    3    0    0    0 -5.3846727995E+01 -1.8388423732E+02  3.0725291555E+02  3.7092642528E+02  8.0431188000E+01 0. 9.
 1000022    1    4    0    0    0 -1.4144871593E+01  1.0206240027E+02  5.5759302775E+01  1.7423259547E+02  1.2896157000E+02 0. 9.
      25    2    4    0    0    0  4.1633408996E+01  1.3857482894E+02  4.1280510273E+00  1.9258030956E+02  1.2701893900E+02 0. 9.
      -1    1    6    0    0  102 -6.5643321518E+01 -8.2521729314E+01  1.6624700098E+02  1.9686811754E+02  3.3000000000E-01 0. 9.
       2    1    6    0  102    0  1.1796593522E+01 -1.0136250801E+02  1.4100591457E+02  1.7405830774E+02  3.3000000000E-01 0. 9.
      21    1    8    0  103  104  6.4996952792E+00  1.0413828311E+02 -5.3131123708E+01  1.1708947157E+02  0.0000000000E+00 0. 9.
      21    1    8    0  104  103  3.5133713717E+01  3.4436545833E+01  5.7259174735E+01  7.5490837985E+01  0.0000000000E+00 0. 9.
</event>
<event>
    12   226  1.000000E+00  3.172390E+02  7.873434E-03  1.065755E-01
       2   -1    0    0  101    0  0.0000000000E+00  0.0000000000E+00  5.3496397112E+02  5.3496397112E+02  0.0000000000E+00 0. 9.
      -2   -1    0    0    0  101  0.0000000000E+00  0.0000000000E+00 -2.2208904172E+02  2.2208904172E+02  0.0000000000E+00 0. 9.
 1000024    2    1    2    0    0 -1.5717819417E+02  5.9628739764E+01  3.0446293893E+02  4.3970248619E+02  2.6903535800E+02 0. 9.
-1000024    2    1    2    0    0  1.5717819417E+02 -5.9628739764E+01  8.4119904748E+00  3.1735052665E+02  2.6903535800E+02 0. 9.
 1000022    1    3    0    0    0 -1.7604846322E+02  5.1260546300E+01  1.6868945438E+02  2.8054932466E+02  1.2896157000E+02 0. 9.
      24    2    3    0    0    0  1.8870269059E+01  8.3681934639E+00  1.3577348455E+02  1.5915316153E+02  8.0431188000E+01 0. 9.
 1000022    1    4    0    0    0  6.6677336729E+01 -3.6116510028E+01  8.5100256083E+01  1.7211452481E+02  1.2896157000E+02 0. 9.
     -24    2    4    0    0    0  9.0500857437E+01 -2.3512229736E+01 -7.6688265609E+01  1.4523600184E+02  8.0431188000E+01 0. 9.
      -3    1    6    0    0  102 -5.5168400865E+00  1.0913654514E+00 -9.8292645524E+00  1.1335389042E+01  5.0000000000E-01 0. 9.
       4    1    6    0  102    0  2.4387109145E+01  7.2768280125E+00  1.4560274910E+02  1.4781777249E+02  1.5000000000E+00 0. 9.
       1    1    8    0  103    0  2.5068162487E+01  2.2770879699E+01  6.2850287667E-01  3.3873730952E+01  3.3000000000E-01 0. 9.
      -2    1    8    0    0  103  6.5432694949E+01 -4.6283109435E+01 -7.7316768485E+01  1.1136227088E+02  3.3000000000E-01 0. 9.
</event>
<event>
    12   226  1.000000E+00  3.714808E+02  7.887546E-03  1.044319E-01
       2   -1    0    0  101    0  0.0000000000E+00  0.0000000000E+00  6.0303103213E+02  6.0303103213E+02  0.0000000000E+00 0. 9.
      -2   -1    0    0    0  101  0.0000000000E+00  0.0000000000E+00 -2.7730692433E+02  2.7730692433E+02  0.0000000000E+00 0. 9.
 1000024    2    1    2    0    0  1.0293245817E+02 -2.3456954408E+02  3.4687954167E+02  5.0825525303E+02  2.6903535800E+02 0. 9.
-1000024    2    1    2    0    0 -1.0293245817E+02  2.3456954408E+02 -2.1155433862E+01  3.7208270343E+02  2.6903535800E+02 0. 9.
 1000022    1    3    0    0    0  1.4614119001E+01 -2.1310543760E+02  2.4669067392E+02  3.5087729357E+02  1.2896157000E+02 0. 9.
      24    2    3    0    0    0  8.8318339167E+01 -2.1464106479E+01  1.0018886775E+02  1.5737795946E+02  8.0431188000E+01 0. 9.
 1000022    1    4    0    0    0 -2.9606802271E+01  4.3812572335E+01  3.8312988888E+01  1.4455129155E+02  1.2896157000E+02 0. 9.
     -24    2    4    0    0    0 -7.3325655897E+01  1.9075697175E+02 -5.9468422750E+01  2.2753141188E+02  8.0431188000E+01 0. 9.
      -1    1    6    0    0  102  1.0886986318E+01  2.6239664013E+01  1.2488056701E+01  3.1033963633E+01  3.3000000000E-01 0. 9.
       2    1    6    0  102    0  7.7431352849E+01 -4.7703770492E+01  8.7700811047E+01  1.2634399583E+02  3.3000000000E-01 0. 9.
       3    1    8    0  103    0 -5.7572405235E+01  1.2888640322E+02 -7.7679930848E+01  1.6112327093E+02  5.0000000000E-01 0. 9.
      -4    1    8    0    0  103 -1.5753250662E+01  6.1870568530E+01  1.8211508098E+01  6.6408140945E+01  1.5000000000E+00 0. 9.
</event>
<event>
    12   226  1.000000E+00  4.773339E+02  7.910066E-03  1.011988E-01
      -2   -1    0    0    0  101  0.0000000000E+00  0.0000000000E+00  4.3742773252E+02  4.3742773252E+02  0.0000000000E+00 0. 9.
       2   -1    0    0  101    0  0.0000000000E+00  0.0000000000E+00 -8.1261073461E+02  8.1261073461E+02  0.0000000000E+00 0. 9.
-1000024    2    1    2    0    0 -9.9435736270E+01  3.8154965218E+02  1.8690066663E+02  5.1262021592E+02  2.6903535800E+02 0. 9.
 1000024    2    1    2    0    0  9.9435736270E+01 -3.8154965218E+02 -5.6208366872E+02  7.3741825121E+02  2.6903535800E+02 0. 9.
 1000022    1    3    0    0    0 -3.0479337419E+01  1.5370163317E+02  1.6284368881E+02  2.6019672475E+02  1.2896157000E+02 0. 9.
     -24    2    3    0    0    0 -6.8956398851E+01  2.2784801901E+02  2.4056977828E+01  2.5242349117E+02  8.0431188000E+01 0. 9.
 1000022    1    4    0    0    0  9.5465720918E+01 -3.2949413815E+02 -3.5992167098E+02  5.1366797323E+02  1.2896157000E+02 0. 9.
      24    2    4    0    0    0  3.9700153516E+00 -5.2055514026E+01 -2.0216199774E+02  2.2375027798E+02  8.0431188000E+01 0. 9.
      15    1    6    0    0    0 -6.9548002264E+01  1.2070633649E+02  3.7916373355E+01  1.4438751118E+02  1.7770000000E+00 0. 9.
     -16    1    6    0    0    0  5.9160341339E-01  1.0714168252E+02 -1.3859395527E+01  1.0803597999E+02  0.0000000000E+00 0. 9.
     -13    1    8    0    0    0  4.3811485953E+00 -2.7499420327E+01 -1.9660846507E+02  1.9857067327E+02  1.0566000000E-01 0. 9.
      14    1    8    0    0    0 -4.1113324369E-01 -2.4556093700E+01 -5.5535326726E+00  2.5179604712E+01  0.0000000000E+00 0. 9.
</event>
<event>
    20   259  1.000000E+00  9.607243E+02  7.973578E-03  9.315298E-02
       2   -1    0    0  101    0  0.0000000000E+00  0.0000000000E+00  1.4806975122E+03  1.4806975122E+03  0.0000000000E+00 0. 9.
      21   -1    0    0  102  101  0.0000000000E+00  0.0000000000E+00 -6.2584874836E+02  6.2584874836E+02  0.0000000000E+00 0. 9.
 2000002    2    1    2  103    0 -2.0605075242E+02  1.2269623366E+02  5.4861610125E+02  1.1580867256E+03  9.9129912700E+02 0. 9.
 1000021    2    1    2  102  103  2.0605075242E+02 -1.2269623366E+02  3.0623266261E+02  9.4845953496E+02  8.6503512500E+02 0. 9.
 1000021    2    3    0  103  104 -2.4412817035E+02  2.8440561140E+01  4.1557834427E+02  9.9065561967E+02  8.6503512500E+02 0. 9.
       2    1    3    0  104    0  3.8077417931E+01  9.4255672515E+01  1.3303775699E+02  1.6743110596E+02  3.3000000000E-01 0. 9.
 1000023    2    4    0    0    0  1.6918123611E+02 -2.0550963582E+02 -1.0707022526E+02  3.9322239329E+02  2.6889276000E+02 0. 9.
       4    1    4    0  102    0 -1.0929490926E+01  1.0181849957E+02 -3.1746887249E+01  1.0722208483E+02  1.5000000000E+00 0. 9.
      -4    1    4    0    0  103  4.7799007235E+01 -1.9005097400E+01  4.4504977512E+02  4.4801505684E+02  1.5000000000E+00 0. 9.
 1000024    2    5    0    0    0  1.0140270777E+02 -1.3189796680E+02  1.2573078192E+02  3.4039364883E+02  2.6903535800E+02 0. 9.
      -4    1    5    0    0  104 -7.7050067576E+01 -1.3086531771E+02 -1.1895083840E+01  1.5233577161E+02  1.5000000000E+00 0. 9.
       3    1    5    0  103    0 -2.6848081054E+02  2.9120384565E+02  3.0174264618E+02  4.9792619923E+02  5.0000000000E-01 0. 9.
 1000022    1    7    0    0    0  1.1730348997E+02 -1.3215927302E+02 -9.0565392399E+01  2.3676857697E+02  1.2896157000E+02 0. 9.
      25    2    7    0    0    0  5.1877746137E+01 -7.3350362804E+01 -1.6504832857E+01  1.5645381632E+02  1.2701893900E+02 0. 9.
 1000022    1   10    0    0    0 -2.5570631960E+01 -8.9102138780E+01  7.8318216262E+01  1.7708155717E+02  1.2896157000E+02 0. 9.
      24    2   10    0    0    0  1.2697333973E+02 -4.2795828022E+01  4.7412565661E+01  1.6331209167E+02  8.0431188000E+01 0. 9.
       5    1   14    0  105    0 -1.5668051309E+01  2.1957480342E+01  2.0057608986E+01  3.3955359709E+01  4.8000000000E+00 0. 9.
      -5    1   14    0    0  105  6.7545797445E+01 -9.5307843146E+01 -3.6562441844E+01  1.2249845661E+02  4.8000000000E+00 0. 9.
     -15    1   16    0    0    0 -1.1986729705E+00 -2.7021732064E+01  9.4952481316E+00  2.8721564837E+01  1.7770000000E+00 0. 9.
      16    1   16    0    0    0  1.2817201270E+02 -1.5774095958E+01  3.7917317529E+01  1.3459052683E+02  0.0000000000E+00 0. 9.
</event>
<event>
    12   226  1.000000E+00  2.733977E+02  7.860183E-03  1.086774E-01
       5   -1    0    0  101    0  0.0000000000E+00  0.0000000000E+00  5.9229078117E+02  5.9229078117E+02  0.0000000000E+00 0. 9.
      -5   -1    0    0    0  101  0.0000000000E+00  0.0000000000E+00 -1.2642855354E+02  1.2642855354E+02  0.0000000000E+00 0. 9.
-1000024    2    1    2    0    0  1.1791393429E+01 -4.7193840818E+01  2.4825411384E+02  3.6929178770E+02  2.6903535800E+02 0. 9.
 1000024    2    1    2    0    0 -1.1791393429E+01  4.7193840818E+01  2.1760811379E+02  3.4942754701E+02  2.6903535800E+02 0. 9.
 1000022    1    3    0    0    0 -7.4740804260E+01 -9.6427995387E+00  1.3974303830E+02  2.0454430986E+02  1.2896157000E+02 0. 9.
     -24    2    3    0    0    0  8.6532197689E+01 -3.7551041279E+01  1.0851107554E+02  1.6474747784E+02  8.0431188000E+01 0. 9.
 1000022    1    4    0    0    0 -6.7823755669E+01 -9.1134874789E+00  1.7669552054E+02  2.2920626301E+02  1.2896157000E+02 0. 9.
      24    2    4    0    0    0  5.6032362240E+01  5.6307328297E+01  4.0912593254E+01  1.2022128401E+02  8.0431188000E+01 0. 9.
       3    1    6    0  102    0  7.6567672278E+01 -1.5091752280E+01  3.1955075971E+01  8.4331170425E+01  5.0000000000E-01 0. 9.
      -4    1    6    0    0  102  9.9645254113E+00 -2.2459288999E+01  7.6555999568E+01  8.0416307419E+01  1.5000000000E+00 0. 9.
     -15    1    8    0    0    0  7.5387886346E+01  4.4610806096E+01  2.1020676489E+01  9.0102630358E+01  1.7770000000E+00 0. 9.
      16    1    8    0    0    0 -1.9355524106E+01  1.1696522200E+01  1.9891916765E+01  3.0118653648E+01  0.0000000000E+00 0. 9.
</event>
<event>
    12   230  1.000000E+00  2.800621E+02  7.862326E-03  1.083314E-01
      -2   -1    0    0    0  101  0.0000000000E+00  0.0000000000E+00  1.0172171582E+02  1.0172171582E+02  0.0000000000E+00 0. 9.
       1   -1    0    0  101    0  0.0000000000E+00  0.0000000000E+00 -7.7344819238E+02  7.7344819238E+02  0.0000000000E+00 0. 9.
-1000024    2    1    2    0    0  5.3484805070E+01  5.6854931214E+01 -3.1169117748E+02  4.1907579451E+02  2.6903535800E+02 0. 9.
 1000023    2    1    2    0    0 -5.3484805070E+01 -5.6854931214E+01 -3.6003529908E+02  4.5609411369E+02  2.6889276000E+02 0. 9.
 1000022    1    3    0    0    0  1.0460338490E+02  4.6890702507E+01 -2.5452768460E+02  3.0749965021E+02  1.2896157000E+02 0. 9.
     -24    2    3    0    0    0 -5.1118579826E+01  9.9642287072E+00 -5.7163492874E+01  1.1157614430E+02  8.0431188000E+01 0. 9.
 1000022    1    4    0    0    0 -2.3474311174E+01 -2.2816579259E+01 -7.3520140259E+01  1.5201295055E+02  1.2896157000E+02 0. 9.
      23    2    4    0    0    0 -3.0010493896E+01 -3.4038351955E+01 -2.8651515882E+02  3.0408116314E+02  9.1187600000E+01 0. 9.
       3    1    6    0  102    0 -4.1050428718E+01  1.0788214268E+01 -7.7757516570E+01  8.8588964596E+01  5.0000000000E-01 0. 9.
      -4    1    6    0    0  102 -1.0068151108E+01 -8.2398556124E-01  2.0594023696E+01  2.2987179708E+01  1.5000000000E+00 0. 9.
      14    1    8    0    0    0  1.5480618206E+01 -3.0333667488E+01 -2.2456827316E+02  2.2713584092E+02  0.0000000000E+00 0. 9.
     -14    1    8    0    0    0 -4.5491112102E+01 -3.7046844670E+00 -6.1946885665E+01  7.6945322216E+01  0.0000000000E+00 0. 9.
</event>
<event>
    12   230  1.000000E+00  2.948071E+02  7.866895E-03  1.076016E-01
      -2   -1    0    0    0  101  0.0000000000E+00  0.0000000000E+00  6.0640323187E+02  6.0640323187E+02  0.0000000000E+00 0. 9.
       1   -1    0    0  101    0  0.0000000000E+00  0.0000000000E+00 -3.5247282035E+02  3.5247282035E+02  0.0000000000E+00 0. 9.
-1000024    2    1    2    0    0 -1.1416875780E+02 -3.9180072949E+01 -2.4234005063E+02  3.8167827731E+02  2.6903535800E+02 0. 9.
 1000023    2    1    2    0    0  1.1416875780E+02  3.9180072949E+01  4.9627046216E+02  5.7719777491E+02  2.6889276000E+02 0. 9.
 1000022    1    3    0    0    0  2.4582128527E+01 -9.4747867681E+00 -1.0235752694E+02  1.6673992469E+02  1.2896157000E+02 0. 9.
     -24    2    3    0    0    0 -1.3875088633E+02 -2.9705286181E+01 -1.3998252369E+02  2.1493835262E+02  8.0431188000E+01 0. 9.
 1000022    1    4    0    0    0  6.5861553890E+01 -1.1831361350E+01  2.9736325191E+02  3.3095878220E+02  1.2896157000E+02 0. 9.
      25    2    4    0    0    0  4.8307203913E+01  5.1011434300E+01  1.9890721025E+02  2.4623899271E+02  1.2701893900E+02 0. 9.
       3    1    6    0  102    0 -9.5309930493E+01  1.8551639891E+01 -7.1714439322E+01  1.2071187597E+02  5.0000000000E-01 0. 9.
      -4    1    6    0    0  102 -4.3440955837E+01 -4.8256926073E+01 -6.8268084366E+01  9.4226476646E+01  1.5000000000E+00 0. 9.
      21    1    8    0  103  104 -1.7920227372E+01  6.2379877847E+01  4.7000845986E+01  8.0134032924E+01  0.0000000000E+00 0. 9.
      21    1    8    0  104  103  6.6227431285E+01 -1.1368443547E+01  1.5190636426E+02  1.6610495979E+02  0.0000000000E+00 0. 9.
</event>
<event>
    12   230  1.000000E+00  2.791504E+02  7.862036E-03  1.083781E-01
       2   -1    0    0  101    0  0.0000000000E+00  0.0000000000E+00  4.3152290895E+02  4.3152290895E+02  0.0000000000E+00 0. 9.
      -3   -1    0    0    0  101  0.0000000000E+00  0.0000000000E+00 -2.0388638423E+02  2.0388638423E+02  0.0000000000E+00 0. 9.
 1000024    2    1    2    0    0  3.1451540596E+00 -7.4654918322E+01  6.4302948627E+00  2.7929307433E+02  2.6903535800E+02 0. 9.
 1000023    2    1    2    0    0 -3.1451540596E+00  7.4654918322E+01  2.2120622986E+02  3.5611621886E+02  2.6889276000E+02 0. 9.
 1000022    1    3    0    0    0  2.4719557974E+01 -2.5455037953E+00  7.3324322731E+01  1.5041635209E+02  1.2896157000E+02 0. 9.
      24    2    3    0    0    0 -2.1574403915E+01 -7.2109414526E+01 -6.6894027869E+01  1.2887672224E+02  8.0431188000E+01 0. 9.
 1000022    1    4    0    0    0 -2.0807313546E+01  6.6412161171E+01  8.7546554374E+01  1.7070150898E+02  1.2896157000E+02 0. 9.
      25    2    4    0    0    0  1.7662159486E+01  8.2427571507E+00  1.3365967548E+02  1.8541470988E+02  1.2701893900E+02 0. 9.
     -11    1    6    0    0    0 -8.3813171787E+00 -8.7369593948E+01 -4.3412379449E+01  9.7920003646E+01  5.1000000000E-04 0. 9.
      12    1    6    0    0    0 -1.3193086736E+01  1.5260179422E+01 -2.3481648419E+01  3.0956718594E+01  0.0000000000E+00 0. 9.
      21    1    8    0  102  103 -1.1005643575E+01 -5.1836928539E+01  9.4052914311E+01  1.0795435166E+02  0.0000000000E+00 0. 9.
      21    1    8    0  103  102  2.8667803062E+01  6.0079685690E+01  3.9606761172E+01  7.7460358220E+01  0.0000000000E+00 0. 9.
</event>
<event>
    16   259  1.000000E+00  1.028769E+03  7.979847E-03  9.243402E-02
       1   -1    0    0  101    0  0.0000000000E+00  0.0000000000E+00  1.2385495890E+03  1.2385495890E+03  0.0000000000E+00 0. 9.
      21   -1    0    0  102  101  0.0000000000E+00  0.0000000000E+00 -9.3525577123E+02  9.3525577123E+02  0.0000000000E+00 0. 9.
 2000001    2    1    2  103    0  6.0993010874E+01 -4.3446831721E+02  4.8341861866E+02  1.1872894823E+03  9.9170554500E+02 0. 9.
 1000021    2    1    2  102  103 -6.0993010874E+01  4.3446831721E+02 -1.8012480085E+02  9.8651587793E+02  8.6503512500E+02 0. 9.
 1000021    2    3    0  103  104  1.3370661248E+02 -3.3520372205E+02  5.0132591621E+02  1.0629451704E+03  8.6503512500E+02 0. 9.
       1    1    3    0  104    0 -7.2713601610E+01 -9.9264595162E+01 -1.7907297546E+01  1.2434431196E+02  3.3000000000E-01 0. 9.
 1000022    1    4    0    0    0 -2.8336598582E+01 -1.2704872748E+02  1.5928087033E+02  2.4278761122E+02  1.2896157000E+02 0. 9.
       4    1    4    0  102    0 -7.2393553509E+01  9.6311104304E+01 -2.3678648916E+02  2.6568166450E+02  1.5000000000E+00 0. 9.
      -4    1    4    0    0  103  3.9737141217E+01  4.6520594038E+02 -1.0261918202E+02  4.7804660221E+02  1.5000000000E+00 0. 9.
 1000023    2    5    0    0    0 -1.1927427327E+02 -1.8027692826E+01 -4.5571218223E+00  2.9474638880E+02  2.6889276000E+02 0. 9.
       5    1    5    0  103    0  2.1018401326E+02  3.4706608629E+01  1.2147078955E+02  2.4527547946E+02  4.8000000000E+00 0. 9.
      -5    1    5    0    0  104  4.2796872495E+01 -3.5188263785E+02  3.8441224848E+02  5.2292330212E+02  4.8000000000E+00 0. 9.
 1000022    1   10    0    0    0 -9.9141017425E+01 -7.3213689639E+01 -3.5643384001E+01  1.8190855683E+02  1.2896157000E+02 0. 9.
      23    2   10    0    0    0 -2.0133255844E+01  5.5185996814E+01  3.1086262178E+01  1.1283783198E+02  9.1187600000E+01 0. 9.
       5    1   14    0  105    0 -3.3033900051E+01  7.0685186843E+01  4.2704480846E+01  8.9074950890E+01  4.8000000000E+00 0. 9.
      -5    1   14    0    0  105  1.2900644207E+01 -1.5499190030E+01 -1.1618218667E+01  2.3762881087E+01  4.8000000000E+00 0. 9.
</event>
<event>
    20   259  1.000000E+00  9.364343E+02  7.971235E-03  9.342491E-02
       2   -1    0    0  101    0  0.0000000000E+00  0.0000000000E+00  2.0619403038E+03  2.0619403038E+03  0.0000000000E+00 0. 9.
      21   -1    0    0  102  101  0.0000000000E+00  0.0000000000E+00 -5.7133399719E+02  5.7133399719E+02  0.0000000000E+00 0. 9.
 2000002    2    1    2  103    0 -6.9323180351E+01 -8.1385822429E+01  1.4512793532E+03  1.7607711594E+03  9.9129912700E+02 0. 9.
 1000021    2    1    2  102  103  6.9323180351E+01  8.1385822429E+01  3.9326953418E+01  8.7250314164E+02  8.6503512500E+02 0. 9.
 1000021    2    3    0  103  104  4.9096143037E+01 -3.0589488208E+01  1.2328318813E+03  1.5071517386E+03  8.6503512500E+02 0. 9.
       2    1    3    0  104    0 -1.1841932339E+02 -5.0796334221E+01  2.1844747191E+02  2.5361942079E+02  3.3000000000E-01 0. 9.
 1000024    2    4    0    0    0  5.6787827203E+01  2.0855478617E+02  2.8297246019E+02  4.4628846415E+02  2.6903535800E+02 0. 9.
      -2    1    4    0    0  103 -1.5154693694E+02 -4.7864070948E+01 -6.7196517213E+01  1.7254832427E+02  3.3000000000E-01 0. 9.
       1    1    4    0  102    0  1.6408229009E+02 -7.9304892791E+01 -1.7644898956E+02  2.5366635322E+02  3.3000000000E-01 0. 9.
 1000023    2    5    0    0    0  6.8463552493E+01  1.8972247455E+02  4.8161175697E+02  5.8731173682E+02  2.6889276000E+02 0. 9.
       1    1    5    0  103    0  1.0206401340E+02 -1.3082988313E+02  7.5088388653E+02  7.6899950657E+02  3.3000000000E-01 0. 9.
      -1    1    5    0    0  104 -1.2143142286E+02 -8.9482079624E+01  3.3623779179E-01  1.5084049518E+02  3.3000000000E-01 0. 9.
 1000022    1    7    0    0    0  8.4569435696E+00  2.0501204573E+02  1.5543376600E+02  2.8791005703E+02  1.2896157000E+02 0. 9.
      24    2    7    0    0    0  4.8330883633E+01  3.5427404391E+00  1.2753869420E+02  1.5837840712E+02  8.0431188000E+01 0. 9.
 1000022    1   10    0    0    0  5.9342595786E+01  1.2742342283E+02  3.1796036023E+02  3.7079394490E+02  1.2896157000E+02 0. 9.
      25    2   10    0    0    0  9.1209567073E+00  6.2299051718E+01  1.6365139675E+02  2.1651779192E+02  1.2701893900E+02 0. 9.
      -3    1   14    0    0  105  5.2001801221E+01 -5.3279345307E+00  1.3586948014E+02  1.4557932494E+02  5.0000000000E-01 0. 9.
       4    1   14    0  105    0 -3.6709175882E+00  8.8706749698E+00 -8.3307859420E+00  1.2799082185E+01  1.5000000000E+00 0. 9.
       5    1   16    0  106    0  3.1859765652E+01 -1.2667704446E+01 -4.3891015480E-01  3.4622941028E+01  4.8000000000E+00 0. 9.
      -5    1   16    0    0  106 -2.2738808945E+01  7.4966756164E+01  1.6409030690E+02  1.8189485089E+02  4.8000000000E+00 0. 9.
</event>
<event>
    12   226  1.000000E+00  2.988803E+02  7.868118E-03  1.074081E-01
       1   -1    0    0  101    0  0.0000000000E+00  0.0000000000E+00  3.8411800199E+02  3.8411800199E+02  0.0000000000E+00 0. 9.
      -1   -1    0    0    0  101  0.0000000000E+00  0.0000000000E+00 -2.4072499187E+02  2.4072499187E+02  0.0000000000E+00 0. 9.
-1000024    2    1    2    0    0 -1.1293552799E+02  6.4768798604E+01  1.4148621591E+01  2.9921503656E+02  2.6903535800E+02 0. 9.
 1000024    2    1    2    0    0  1.1293552799E+02 -6.4768798604E+01  1.2924438854E+02  3.2562795730E+02  2.6903535800E+02 0. 9.
 1000022    1    3    0    0    0 -1.1913047348E+02 -1.9981647254E+01  3.5627926216E+01  1.8025474086E+02  1.2896157000E+02 0. 9.
     -24    2    3    0    0    0  6.1949454894E+00  8.4750445858E+01 -2.1479304625E+01  1.1896029570E+02  8.0431188000E+01 0. 9.
 1000022    1    4    0    0    0 -2.9841914976E+00 -7.0110887862E+01  2.2291054727E+01  1.4850057122E+02  1.2896157000E+02 0. 9.
      24    2    4    0    0    0  1.1591971949E+02  5.3420892587E+00  1.0695333381E+02  1.7712738608E+02  8.0431188000E+01 0. 9.
      15    1    6    0    0    0  1.3107329587E+01  9.8875639746E+01 -2.5008167987E+01  1.0284337810E+02  1.7770000000E+00 0. 9.
     -16    1    6    0    0    0 -6.9123840979E+00 -1.4125193888E+01  3.5288633621E+00  1.6116917600E+01  0.0000000000E+00 0. 9.
      -1    1    8    0    0  102  4.1306818261E+01 -1.4377788118E+01  8.7059271606E+01  9.7428946923E+01  3.3000000000E-01 0. 9.
       2    1    8    0  102    0  7.4612901225E+01  1.9719877377E+01  1.9894062203E+01  7.9698439157E+01  3.3000000000E-01 0. 9.
</event>
<event>
    19   276  1.000000E+00  1.007456E+03  7.977928E-03  9.265278E-02
       2   -1    0    0  101    0  0.0000000000E+00  0.0000000000E+00  2.1881450757E+03  2.1881450757E+03  0.0000000000E+00 0. 9.
      -2   -1    0    0    0  101  0.0000000000E+00  0.0000000000E+00 -4.7956125563E+02  4.7956125563E+02  0.0000000000E+00 0. 9.
 1000002    2    1    2  102    0 -1.7798375072E+02 -2.0251139537E+01  6.1293345367E+02  1.1793475007E+03  9.9150632100E+02 0. 9.
-2000002    2    1    2    0  102  1.7798375072E+02  2.0251139537E+01  1.0956503664E+03  1.4883588306E+03  9.9129912700E+02 0. 9.
 1000024    2    3    0    0    0 -3.1672953283E+02 -4.1520977099E+02  3.2615562004E+02  6.7191834566E+02  2.6903535800E+02 0. 9.
       1    1    3    0  102    0  1.3874578211E+02  3.9495863146E+02  2.8677783363E+02  5.0742915503E+02  3.3000000000E-01 0. 9.
 1000021    2    4    0  103  102  1.6228538717E+02  1.3568541409E+02  9.8086497683E+02  1.3248127976E+03  8.6503512500E+02 0. 9.
      -2    1    4    0    0  103  1.5698363553E+01 -1.1543427455E+02  1.1478538957E+02  1.6354603303E+02  3.3000000000E-01 0. 9.
 1000022    1    5    0    0    0 -9.0150792611E+01 -2.3198896102E+02  2.0006716893E+02  3.4438931758E+02  1.2896157000E+02 0. 9.
      24    2    5    0    0    0 -2.2657874022E+02 -1.8322080997E+02  1.2608845110E+02  3.2752902808E+02  8.0431188000E+01 0. 9.
 1000023    2    7    0    0    0 -2.0655958493E+01  6.3897716327E+01  3.5095360360E+02  4.4719272695E+02  2.6889276000E+02 0. 9.
       5    1    7    0  103    0  2.5408304822E+02  2.2672982444E+02  6.1925252712E+02  7.0672578913E+02  4.8000000000E+00 0. 9.
      -5    1    7    0    0  102 -7.1141702556E+01 -1.5494212668E+02  1.0658846105E+01  1.7089428154E+02  4.8000000000E+00 0. 9.
     -13    1   10    0    0    0 -1.6373987002E+02 -1.0783416682E+02  1.1851412060E+02  2.2909509055E+02  1.0566000000E-01 0. 9.
      14    1   10    0    0    0 -6.2838870202E+01 -7.5386643159E+01  7.5743305022E+00  9.8433937529E+01  0.0000000000E+00 0. 9.
 1000022    1   11    0    0    0  2.3755485772E+01  2.8437314213E+01  1.3538684386E+02  1.9061397633E+02  1.2896157000E+02 0. 9.
      25    2   11    0    0    0 -4.4411444265E+01  3.5460402114E+01  2.1556675974E+02  2.5657875062E+02  1.2701893900E+02 0. 9.
       5    1   17    0  104    0  9.5168288019E+00 -4.1805520608E+01  5.0206858156E+01  6.6196980215E+01  4.8000000000E+00 0. 9.
      -5    1   17    0    0  104 -5.3928273067E+01  7.7265922722E+01  1.6535990159E+02  1.9038177041E+02  4.8000000000E+00 0. 9.
</event>
<event>
    22   244  1.000000E+00  9.034742E+02  7.967959E-03  9.380809E-02
      21   -1    0    0  101  102  0.0000000000E+00  0.0000000000E+00  1.0091625100E+03  1.0091625100E+03  0.0000000000E+00 0. 9.
      21   -1    0    0  103  101  0.0000000000E+00  0.0000000000E+00 -8.2602141784E+02  8.2602141784E+02  0.0000000000E+00 0. 9.
 1000021    2    1    2  104  102 -2.4946444456E+02 -7.5811634192E+01  2.2385218647E+02  9.3079293178E+02  8.6503512500E+02 0. 9.
 1000021    2    1    2  103  104  2.4946444456E+02  7.5811634192E+01 -4.0711094359E+01  9.0439099601E+02  8.6503512500E+02 0. 9.
 1000024    2    3    0    0    0 -1.3174888917E+02 -3.1951477915E+02  2.3399799322E+01  4.3860578925E+02  2.6903535800E+02 0. 9.
      -4    1    3    0    0  102  1.2777149254E+01 -7.3602594805E+01  1.1744347741E+02  1.3919704699E+02  1.5000000000E+00 0. 9.
       3    1    3    0  104    0 -1.3049270464E+02  3.1730573977E+02  8.3008909737E+01  3.5299009554E+02  5.0000000000E-01 0. 9.
 1000024    2    4    0    0    0  1.8159675936E+02  1.1243798745E+02 -4.4798890255E+01  3.4641975760E+02  2.6903535800E+02 0. 9.
      -6    2    4    0    0  104 -1.7788691416E+02 -5.3769382476E+01  1.2543285678E+02  2.8331350530E+02  1.7320000000E+02 0. 9.
       5    1    4    0  103    0  2.4575459936E+02  1.7143029214E+01 -1.2134506088E+02  2.7465773312E+02  4.8000000000E+00 0. 9.
 1000022    1    5    0    0    0 -8.2387021155E+01 -6.5165038133E+01  2.6511661313E-01  1.6632877163E+02  1.2896157000E+02 0. 9.
      24    2    5    0    0    0 -4.9361868020E+01 -2.5434974102E+02  2.3134682709E+01  2.7227701761E+02  8.0431188000E+01 0. 9.
 1000022    1    8    0    0    0  1.1393579233E+02  1.1093216762E+02  4.3298346509E+01  2.0926811495E+02  1.2896157000E+02 0. 9.
      24    2    8    0    0    0  6.7660967031E+01  1.5058198319E+00 -8.8097236765E+01  1.3715164265E+02  8.0431188000E+01 0. 9.
     -24    2    9    0    0    0 -8.4546870945E+01  3.6458688641E+01  7.7979846313E+01  1.4500841975E+02  8.0431188000E+01 0. 9.
      -5    1    9    0    0  104 -9.3340043219E+01 -9.0228071117E+01  4.7453010467E+01  1.3830508555E+02  4.8000000000E+00 0. 9.
      -1    1   12    0    0  105  8.3285234376E+00 -9.6923609770E+01  3.6894958042E+01  1.0404276651E+02  3.3000000000E-01 0. 9.
       4    1   12    0  105    0 -5.7690391457E+01 -1.5742613125E+02 -1.3760275333E+01  1.6823425110E+02  1.5000000000E+00 0. 9.
      -1    1   14    0    0  106  5.6243977717E+01 -3.0561934541E+01 -3.2076149467E+01  7.1598918546E+01  3.3000000000E-01 0. 9.
       2    1   14    0  106    0  1.1416989314E+01  3.2067754372E+01 -5.6021087297E+01  6.5552724104E+01  3.3000000000E-01 0. 9.
      11    1   15    0    0    0  1.0444182348E+01 -1.1624281067E+01  1.2554268884E+01  2.0045311739E+01  5.1000000000E-04 0. 9.
     -12    1   15    0    0    0 -9.4991053293E+01  4.8082969707E+01  6.5425577429E+01  1.2496310801E+02  0.0000000000E+00 0. 9.
</event>
<event>
    23   271  1.000000E+00  1.261926E+03  7.998618E-03  9.035233E-02
       2   -1    0    0  101    0  0.0000000000E+00  0.0000000000E+00  1.5010644950E+03  1.5010644950E+03  0.0000000000E+00 0. 9.
       1   -1    0    0  102    0  0.0000000000E+00  0.0000000000E+00 -1.1066455795E+03  1.1066455795E+03  0.0000000000E+00 0. 9.
 1000002    2    1    2  102    0  7.5917505335E+02  1.7387845723E+02 -6.8093235040E+01  1.2626567042E+03  9.9150632100E+02 0. 9.
 1000001    2    1    2  101    0 -7.5917505335E+02 -1.7387845723E+02  4.6251215053E+02  1.3450533702E+03  9.9431916400E+02 0. 9.
 1000021    2    3    0  102  103  7.8653390070E+02  9.5855733403E+01 -3.5000861205E+01  1.1735990484E+03  8.6503512500E+02 0. 9.
       2    1    3    0  103    0 -2.7358847352E+01  7.8022723827E+01 -3.3092373835E+01  8.9057655863E+01  3.3000000000E-01 0. 9.
-1000024    2    4    0    0    0 -8.3214023132E+02  3.8237760223E+01  6.1849333967E+02  1.0718365202E+03  2.6903535800E+02 0. 9.
       2    1    4    0  101    0  7.2965177974E+01 -2.1211621745E+02 -1.5598118913E+02  2.7321685008E+02  3.3000000000E-01 0. 9.
-1000024    2    5    0    0    0  1.4561139059E+02 -1.1168106723E+02 -9.7388300920E+00  3.2580700808E+02  2.6903535800E+02 0. 9.
       6    2    5    0  102    0  4.3806810940E+02  2.2491925715E+02  1.8618808774E+02  5.5421709170E+02  1.7320000000E+02 0. 9.
      -5    1    5    0    0  103  2.0285440070E+02 -1.7382456525E+01 -2.1145011886E+02  2.9357494859E+02  4.8000000000E+00 0. 9.
 1000022    1    7    0    0    0 -5.5156393203E+02  5.8261037098E+01  3.1696079607E+02  6.5169958749E+02  1.2896157000E+02 0. 9.
     -24    2    7    0    0    0 -2.8057629929E+02 -2.0023276875E+01  3.0153254360E+02  4.2013693267E+02  8.0431188000E+01 0. 9.
 1000022    1    9    0    0    0  1.0518048124E+02 -5.4116040490E+01  7.4054180178E+01  1.9001733503E+02  1.2896157000E+02 0. 9.
     -24    2    9    0    0    0  4.0430909356E+01 -5.7565026736E+01 -8.3793010270E+01  1.3578967305E+02  8.0431188000E+01 0. 9.
      24    2   10    0    0    0  2.6624316581E+02  1.0829417251E+02  1.7545654816E+02  3.4621846778E+02  8.0431188000E+01 0. 9.
       5    1   10    0  102    0  1.7182494360E+02  1.1662508464E+02  1.0731539583E+01  2.0799862392E+02  4.8000000000E+00 0. 9.
       3    1   13    0  104    0 -2.7252605208E+02 -2.4995925603E+01  2.5990204526E+02  3.7741829379E+02  5.0000000000E-01 0. 9.
      -4    1   13    0    0  104 -8.0502472103E+00  4.9726487282E+00  4.1630498338E+01  4.2718638876E+01  1.5000000000E+00 0. 9.
       3    1   15    0  105    0  4.7964166525E+01 -2.8403169555E+01 -8.9166626007E+01  1.0515815948E+02  5.0000000000E-01 0. 9.
      -4    1   15    0    0  105 -7.5332571690E+00 -2.9161857181E+01  5.3736157365E+00  3.0631513575E+01  1.5000000000E+00 0. 9.
      -1    1   16    0    0  106  1.9557323648E+01  9.1041732913E+00  4.5329472191E+01  5.0202040085E+01  3.3000000000E-01 0. 9.
       2    1   16    0  106    0  2.4668584216E+02  9.9189999222E+01  1.3012707597E+02  2.9601642770E+02  3.3000000000E-01 0. 9.
</event>
<event>
    20   259  1.000000E+00  1.108300E+03  7.986679E-03  9.166416E-02
       2   -1    0    0  101    0  0.0000000000E+00  0.0000000000E+00  1.1201307391E+03  1.1201307391E+03  0.0000000000E+00 0. 9.
      21   -1    0    0  102  101  0.0000000000E+00  0.0000000000E+00 -1.1754361937E+03  1.1754361937E+03  0.0000000000E+00 0. 9.
 2000002    2    1    2  103    0 -2.3929842672E+02  5.5279835729E+02 -3.3050112973E+02  1.2061321307E+03  9.9129912700E+02 0. 9.
 1000021    2    1    2  102  103  2.3929842672E+02 -5.5279835729E+02  2.7519567507E+02  1.0894348020E+03  8.6503512500E+02 0. 9.
 1000021    2    3    0  103  104 -2.0743691118E+02  4.9217822136E+02 -1.6884083966E+02  1.0305641515E+03  8.6503512500E+02 0. 9.
       2    1    3    0  104    0 -3.1861515542E+01  6.0620135927E+01 -1.6166029007E+02  1.7556797925E+02  3.3000000000E-01 0. 9.
 1000024    2    4    0    0    0  1.5635814168E+02 -4.9671367596E+02 -7.6876511410E+01  5.9115342020E+02  2.6903535800E+02 0. 9.
      -4    1    4    0    0  103 -4.4167592120E+01 -1.7307579308E+02  1.9968168745E+02  2.6791982504E+02  1.5000000000E+00 0. 9.
       3    1    4    0  102    0  1.2710787716E+02  1.1699111174E+02  1.5239049903E+02  2.3036155681E+02  5.0000000000E-01 0. 9.
-1000024    2    5    0    0    0  1.5996001177E+02 -3.4090341343E+00  5.1023137246E+01  3.1714698685E+02  2.6903535800E+02 0. 9.
       4    1    5    0  103    0  4.4457733691E+01  3.9417587564E+01 -4.4667298098E+01  7.4348193076E+01  1.5000000000E+00 0. 9.
      -3    1    5    0    0  104 -4.1185465664E+02  4.5616966793E+02 -1.7519667881E+02  6.3906897156E+02  5.0000000000E-01 0. 9.
 1000022    1    7    0    0    0  1.4571645230E+02 -2.5357715411E+02  1.2019524536E+01  3.1985967715E+02  1.2896157000E+02 0. 9.
      24    2    7    0    0    0  1.0641689376E+01 -2.4313652184E+02 -8.8896035946E+01  2.7129374305E+02  8.0431188000E+01 0. 9.
 1000022    1   10    0    0    0  3.6088855183E+01 -3.1724164079E+00 -4.4620330563E+01  1.4118969555E+02  1.2896157000E+02 0. 9.
     -24    2   10    0    0    0  1.2387115659E+02 -2.3661772640E-01  9.5643467809E+01  1.7595729130E+02  8.0431188000E+01 0. 9.
      -1    1   14    0    0  105  3.2519445620E+01 -1.2634069598E+02 -7.7926218773E+01  1.5196081823E+02  3.3000000000E-01 0. 9.
       2    1   14    0  105    0 -2.1877756244E+01 -1.1679582586E+02 -1.0969817173E+01  1.1933292482E+02  3.3000000000E-01 0. 9.
       1    1   16    0  106    0  4.1832654423E+01 -1.0002980473E+01 -7.6490345320E+00  4.3688067292E+01  3.3000000000E-01 0. 9.
      -2    1   16    0    0  106  8.2038502169E+01  9.7663627466E+00  1.0329250234E+02  1.3226922401E+02  3.3000000000E-01 0. 9.
</event>
<event>
    12   226  1.000000E+00  2.720807E+02  7.859754E-03  1.087470E-01
       2   -1    0    0  101    0  0.0000000000E+00  0.0000000000E+00  1.0711929028E+02  1.0711929028E+02  0.0000000000E+00 0. 9.
      -2   -1    0    0    0  101  0.0000000000E+00  0.0000000000E+00 -7.3994509939E+02  7.3994509939E+02  0.0000000000E+00 0. 9.
 1000024    2    1    2    0    0  4.0592035620E+01  3.8483664466E-01 -2.0757233780E+02  3.4221946282E+02  2.6903535800E+02 0. 9.
-1000024    2    1    2    0    0 -4.0592035620E+01 -3.8483664466E-01 -4.2525347131E+02  5.0484492685E+02  2.6903535800E+02 0. 9.
 1000022    1    3    0    0    0 -1.9656359844E+01  6.8664702378E+01 -8.7649669413E+01  1.7150733197E+02  1.2896157000E+02 0. 9.
      24    2    3    0    0    0  6.0248395464E+01 -6.8279865734E+01 -1.1992266839E+02  1.7071213084E+02  8.0431188000E+01 0. 9.
 1000022    1    4    0    0    0 -1.3028866225E+01 -2.8231809640E+01 -9.6256010168E+01  1.6389964143E+02  1.2896157000E+02 0. 9.
     -24    2    4    0    0    0 -2.7563169395E+01  2.7846972995E+01 -3.2899746114E+02  3.4094528542E+02  8.0431188000E+01 0. 9.
      -1    1    6    0    0  102  4.5715061552E+01 -7.3055656012E+01 -5.1062281017E+01  1.0017215766E+02  3.3000000000E-01 0. 9.
       2    1    6    0  102    0  1.4533333912E+01  4.7757902785E+00 -6.8860387373E+01  7.0539973182E+01  3.3000000000E-01 0. 9.
      11    1    8    0    0    0 -4.2967898101E+01 -3.5368817251E+00 -9.4677854262E+01  1.0403194648E+02  5.1000000000E-04 0. 9.
     -12    1    8    0    0    0  1.5404728706E+01  3.1383854721E+01 -2.3431960688E+02  2.3691333895E+02  0.0000000000E+00 0. 9.
</event>
<event>
    12   226  1.000000E+00  2.798155E+02  7.862248E-03  1.083440E-01
      -2   -1    0    0    0  101  0.0000000000E+00  0.0000000000E+00  1.7153154990E+02  1.7153154990E+02  0.0000000000E+00 0. 9.
       2   -1    0    0  101    0  0.0000000000E+00  0.0000000000E+00 -4.6152973653E+02  4.6152973653E+02  0.0000000000E+00 0. 9.
-1000024    2    1    2    0    0  1.1391767829E+01  7.6071797937E+01 -1.1181327418E+02  3.0132859631E+02  2.6903535800E+02 0. 9.
 1000024    2    1    2    0    0 -1.1391767829E+01 -7.6071797937E+01 -1.7818491245E+02  3.3173269012E+02  2.6903535800E+02 0. 9.
 1000022    1    3    0    0    0  3.0880227260E+01 -1.0058525544E+01  6.5775642932E+00  1.3315071634E+02  1.2896157000E+02 0. 9.
     -24    2    3    0    0    0 -1.9488459431E+01  8.6130323482E+01 -1.1839083848E+02  1.6817787997E+02  8.0431188000E+01 0. 9.
 1000022    1    4    0    0    0 -3.1640943883E+01 -5.2173257685E+01 -1.0399458603E+01  1.4304696230E+02  1.2896157000E+02 0. 9.
      24    2    4    0    0    0  2.0249176054E+01 -2.3898540252E+01 -1.6778545385E+02  1.8868572782E+02  8.0431188000E+01 0. 9.
       3    1    6    0  102    0 -1.2996707609E+01 -1.3471326625E+01 -2.6856035078E+01  3.2739695628E+01  5.0000000000E-01 0. 9.
      -4    1    6    0    0  102 -6.4917518227E+00  9.9601650106E+01 -9.1534803399E+01  1.3543818435E+02  1.5000000000E+00 0. 9.
      -1    1    8    0    0  103  1.4118182684E+01 -1.2343014818E+01  1.5737477043E+00  1.8821760781E+01  3.3000000000E-01 0. 9.
       2    1    8    0  103    0  6.1309933702E+00 -1.1555525435E+01 -1.6935920155E+02  1.6986396704E+02  3.3000000000E-01 0. 9.
</event>
<event>
    12   226  1.000000E+00  2.960357E+02  7.867265E-03  1.075429E-01
      -1   -1    0    0    0  101  0.0000000000E+00  0.0000000000E+00  3.8996317937E+02  3.8996317937E+02  0.0000000000E+00 0. 9.
       1   -1    0    0  101    0  0.0000000000E+00  0.0000000000E+00 -2.2792230569E+02  2.2792230569E+02  0.0000000000E+00 0. 9.
 1000024    2    1    2    0    0 -4.5148378174E+01  1.1497274513E+02  4.4468238021E+01  2.9935690442E+02  2.6903535800E+02 0. 9.
-1000024    2    1    2    0    0  4.5148378174E+01 -1.1497274513E+02  1.1757263566E+02  3.1852858064E+02  2.6903535800E+02 0. 9.
 1000022    1    3    0    0    0 -1.0997540335E+02  7.0757347556E+01  2.6880221073E+01  1.8562010774E+02  1.2896157000E+02 0. 9.
      24    2    3    0    0    0  6.4827025173E+01  4.4215397573E+01  1.7588016948E+01  1.1373679668E+02  8.0431188000E+01 0. 9.
 1000022    1    4    0    0    0  9.5605426622E+01 -2.9470862935E+01  9.4775068615E+01  1.8873878650E+02  1.2896157000E+02 0. 9.
     -24    2    4    0    0    0 -5.0457048447E+01 -8.5501882194E+01  2.2797567047E+01  1.2978979414E+02  8.0431188000E+01 0. 9.
      -1    1    6    0    0  102  4.8639843895E+01 -1.1038732339E+01  2.4811237532E+01  5.5708118202E+01  3.3000000000E-01 0. 9.
       2    1    6    0  102    0  1.6187181278E+01  5.5254129912E+01 -7.2232205842E+00  5.8028678476E+01  3.3000000000E-01 0. 9.
      13    1    8    0    0    0 -3.3103971131E+00 -5.1441789193E+01 -2.2326289507E+01  5.6175535348E+01  1.0566000000E-01 0. 9.
     -14    1    8    0    0    0 -4.7146651334E+01 -3.4060093001E+01  4.5123856555E+01  7.3614258793E+01  0.0000000000E+00 0. 9.
</event>
<event>
    17   258  1.000000E+00  9.353418E+02  7.971128E-03  9.343735E-02
      21   -1    0    0  101  102  0.0000000000E+00  0.0000000000E+00  3.9652513710E+02  3.9652513710E+02  0.0000000000E+00 0. 9.
       2   -1    0    0  102    0  0.0000000000E+00  0.0000000000E+00 -2.2313318866E+03  2.2313318866E+03  0.0000000000E+00 0. 9.
 1000021    2    1    2  101  103  9.4892067564E+01 -1.3212898674E+01 -6.9239011492E+02  1.1121460893E+03  8.6503512500E+02 0. 9.
 1000002    2    1    2  103    0 -9.4892067564E+01  1.3212898674E+01 -1.1424166346E+03  1.5157109344E+03  9.9150632100E+02 0. 9.
 1000024    2    3    0    0    0  1.7558312893E+02 -1.3663165162E+02 -3.3649945007E+02  4.8488096183E+02  2.6903535800E+02 0. 9.
      -4    1    3    0    0  103 -1.3125714006E+02  3.0212305148E+02 -2.4948975583E+02  4.1322410786E+02  1.5000000000E+00 0. 9.
       3    1    3    0  101    0  5.0566078691E+01 -1.7870429853E+02 -1.0640090902E+02  2.1404101959E+02  5.0000000000E-01 0. 9.
 1000024    2    4    0    0    0 -4.0737221886E+02  7.5288620987E+01 -2.2170198800E+02  5.4143540380E+02  2.6903535800E+02 0. 9.
       1    1    4    0  103    0  3.1248015129E+02 -6.2075722313E+01 -9.2071464658E+02  9.7427553062E+02  3.3000000000E-01 0. 9.
 1000022    1    5    0    0    0  9.8493915191E+01 -9.8320241398E+01 -8.6518158881E+01  2.0852913358E+02  1.2896157000E+02 0. 9.
      24    2    5    0    0    0  7.7089213742E+01 -3.8311410225E+01 -2.4998129119E+02  2.7635182825E+02  8.0431188000E+01 0. 9.
 1000022    1    8    0    0    0 -1.8956594617E+02 -1.8436943891E+00 -3.1278950176E+01  2.3140463785E+02  1.2896157000E+02 0. 9.
      24    2    8    0    0    0 -2.1780627268E+02  7.7132315376E+01 -1.9042303783E+02  3.1003076595E+02  8.0431188000E+01 0. 9.
      -3    1   11    0    0  104  5.4218290452E+01  5.8170296445E+00 -6.5180923955E+01  8.4983902600E+01  5.0000000000E-01 0. 9.
       2    1   11    0  104    0  2.2870923290E+01 -4.4128439869E+01 -1.8480036723E+02  1.9136792565E+02  3.3000000000E-01 0. 9.
     -15    1   13    0    0    0 -1.9856405990E+02  7.9456914559E+01 -1.3900669814E+02  2.5508254940E+02  1.7770000000E+00 0. 9.
      16    1   13    0    0    0 -1.9242212786E+01 -2.3245991823E+00 -5.1416339689E+01  5.4948216543E+01  0.0000000000E+00 0. 9.
</event>
<event>
    20   259  1.000000E+00  1.086701E+03  7.984872E-03  9.186638E-02
      21   -1    0    0  101  102  0.0000000000E+00  0.0000000000E+00  1.0240837892E+03  1.0240837892E+03  0.0000000000E+00 0. 9.
       2   -1    0    0  102    0  0.0000000000E+00  0.0000000000E+00 -1.1895089682E+03  1.1895089682E+03  0.0000000000E+00 0. 9.
 1000021    2    1    2  101  103 -2.0931133702E+01  5.6125042039E+02  1.2196615273E+02  1.0385574884E+03  8.6503512500E+02 0. 9.
 2000002    2    1    2  103    0  2.0931133702E+01 -5.6125042039E+02 -2.8739133165E+02  1.1750352690E+03  9.9129912700E+02 0. 9.
-1000024    2    3    0    0    0  1.9078197513E+02  3.8063562289E+02 -1.8277970725E+02  5.3578884337E+02  2.6903535800E+02 0. 9.
       6    2    3    0  101    0 -4.1470944704E+01  6.1843569323E+01  1.7933375930E+02  2.6019858483E+02  1.7320000000E+02 0. 9.
      -5    1    3    0    0  103 -1.7024216413E+02  1.1877122817E+02  1.2541210068E+02  2.4257006016E+02  4.8000000000E+00 0. 9.
 1000021    2    4    0  103  104  1.1622269726E+01 -5.8456467341E+02 -1.7350472863E+02  1.0584141878E+03  8.6503512500E+02 0. 9.
       2    1    4    0  104    0  9.3088639758E+00  2.3314253022E+01 -1.1388660302E+02  1.1662108124E+02  3.3000000000E-01 0. 9.
 1000022    1    5    0    0    0  1.3996442561E+02  2.8912016603E+02 -2.0445396958E+02  4.0201122255E+02  1.2896157000E+02 0. 9.
     -24    2    5    0    0    0  5.0817549520E+01  9.1515456860E+01  2.1674262326E+01  1.3377762083E+02  8.0431188000E+01 0. 9.
      24    2    6    0    0    0  2.5276305502E+01  4.6856846058E+00  3.5547166624E+01  9.1616725100E+01  8.0431188000E+01 0. 9.
       5    1    6    0  101    0 -6.6747250206E+01  5.7157884717E+01  1.4378659268E+02  1.6858185973E+02  4.8000000000E+00 0. 9.
 1000022    1    8    0    0    0  1.2619339895E+02 -6.1358796906E+02 -2.0891672700E+02  6.7282408925E+02  1.2896157000E+02 0. 9.
       4    1    8    0  103    0 -4.7329736923E-01 -1.5816870655E+02 -2.0082322729E+01  1.5944627129E+02  1.5000000000E+00 0. 9.
      -4    1    8    0    0  104 -1.1409783186E+02  1.8719200221E+02  5.5494321094E+01  2.2614382724E+02  1.5000000000E+00 0. 9.
       3    1   11    0  105    0  5.8544693676E+01  9.6367223150E+01  2.8374480637E+00  1.1279372308E+02  5.0000000000E-01 0. 9.
      -4    1   11    0    0  105 -7.7271441557E+00 -4.8517662909E+00  1.8836814263E+01  2.0983897744E+01  1.5000000000E+00 0. 9.
     -15    1   12    0    0    0  1.9420329344E+01 -3.3860823277E+01  3.5252232437E+01  5.2626819832E+01  1.7770000000E+00 0. 9.
      16    1   12    0    0    0  5.8559761579E+00  3.8546507882E+01  2.9493418667E-01  3.8989905269E+01  0.0000000000E+00 0. 9.
</event>
<event>
    19   271  1.000000E+00  1.159877E+03  7.990858E-03  9.120018E-02
       2   -1    0    0  101    0  0.0000000000E+00  0.0000000000E+00  1.4304167216E+03  1.4304167216E+03  0.0000000000E+00 0. 9.
       1   -1    0    0  102    0  0.0000000000E+00  0.0000000000E+00 -1.1556352340E+03  1.1556352340E+03  0.0000000000E+00 0. 9.
 1000002    2    1    2  102    0 -4.8606980177E+01 -5.9755743451E+02  6.9516344486E+02  1.3512122430E+03  9.9150632100E+02 0. 9.
 1000001    2    1    2  101    0  4.8606980177E+01  5.9755743451E+02 -4.2038195722E+02  1.2348397126E+03  9.9431916400E+02 0. 9.
 1000021    2    3    0  102  103  7.2291678684E+01 -5.4033229068E+02  6.4169288532E+02  1.2071622085E+03  8.6503512500E+02 0. 9.
       2    1    3    0  103    0 -1.2089865886E+02 -5.7225143830E+01  5.3470559541E+01  1.4405003450E+02  3.3000000000E-01 0. 9.
-1000024    2    4    0    0    0  3.5931001096E+02  2.1921655999E+02 -5.3507567526E+02  7.3201474456E+02  2.6903535800E+02 0. 9.
       2    1    4    0  101    0 -3.1070303078E+02  3.7834087451E+02  1.1469371803E+02  5.0282496808E+02  3.3000000000E-01 0. 9.
 1000024    2    5    0    0    0 -8.1699579816E+00 -2.3354145369E+02 -3.3375748303E+01  3.5791384890E+02  2.6903535800E+02 0. 9.
      -2    1    5    0    0  103 -1.5656657576E+02 -9.4990950181E+01  3.4750776584E+02  3.9280800588E+02  3.3000000000E-01 0. 9.
       1    1    5    0  102    0  2.3702821242E+02 -2.1179988680E+02  3.2756086778E+02  4.5644035375E+02  3.3000000000E-01 0. 9.
 1000022    1    7    0    0    0  1.5096632766E+02  2.6761251323E+01 -2.6487840930E+02  3.3211241306E+02  1.2896157000E+02 0. 9.
     -24    2    7    0    0    0  2.0834368330E+02  1.9245530867E+02 -2.7019726596E+02  3.9990233150E+02  8.0431188000E+01 0. 9.
 1000022    1    9    0    0    0  2.9008257904E+01 -2.1375890356E+02 -6.8614768674E+01  2.6052527880E+02  1.2896157000E+02 0. 9.
      24    2    9    0    0    0 -3.7178215885E+01 -1.9782550132E+01  3.5239020371E+01  9.7388570099E+01  8.0431188000E+01 0. 9.
       3    1   13    0  104    0  9.2370585792E+01  1.0818939430E+02 -8.5065910863E+01  1.6575201160E+02  5.0000000000E-01 0. 9.
      -4    1   13    0    0  104  1.1597309751E+02  8.4265914367E+01 -1.8513135509E+02  2.3415031990E+02  1.5000000000E+00 0. 9.
      -1    1   15    0    0  105 -7.5238311757E+00 -2.3980087647E+01 -2.1599866737E+01  3.3140847638E+01  3.3000000000E-01 0. 9.
       2    1   15    0  105    0 -2.9654384710E+01  4.1975375149E+00  5.6838887108E+01  6.4247722461E+01  3.3000000000E-01 0. 9.
</event>
<event>
    12   230  1.000000E+00  3.762762E+02  7.888695E-03  1.042615E-01
      -1   -1    0    0    0  101  0.0000000000E+00  0.0000000000E+00  1.3293493222E+03  1.3293493222E+03  0.0000000000E+00 0. 9.
       2   -1    0    0  101    0  0.0000000000E+00  0.0000000000E+00 -1.1538624545E+02  1.1538624545E+02  0.0000000000E+00 0. 9.
 1000023    2    1    2    0    0 -2.6313895867E+02 -3.4929431065E-02  4.0650830732E+02  5.5389027171E+02  2.6889276000E+02 0. 9.
 1000024    2    1    2    0    0  2.6313895867E+02  3.4929431065E-02  8.0745476943E+02  8.9084529595E+02  2.6903535800E+02 0. 9.
 1000022    1    3    0    0    0 -1.0176405268E+02  1.0539448251E+01  2.9358858101E+02  3.3658928061E+02  1.2896157000E+02 0. 9.
      23    2    3    0    0    0 -1.6137490599E+02 -1.0574377682E+01  1.1291972631E+02  2.1730099110E+02  9.1187600000E+01 0. 9.
 1000022    1    4    0    0    0  7.4166243419E+01 -5.1194654799E+01  4.3311653063E+02  4.6080640185E+02  1.2896157000E+02 0. 9.
      24    2    4    0    0    0  1.8897271525E+02  5.1229584230E+01  3.7433823879E+02  4.3003889410E+02  8.0431188000E+01 0. 9.
      16    1    6    0    0    0 -7.3676387335E+01  3.8639890621E+01  6.6668232555E+01  1.0661099582E+02  0.0000000000E+00 0. 9.
     -16    1    6    0    0    0 -8.7698518657E+01 -4.9214268304E+01  4.6251493760E+01  1.1068999528E+02  0.0000000000E+00 0. 9.
      -3    1    8    0    0  102  1.0071281087E+02  1.7800440975E+01  1.1416839949E+02  1.5327948139E+02  5.0000000000E-01 0. 9.
       2    1    8    0  102    0  8.8259904380E+01  3.3429143255E+01  2.6016983930E+02  2.7675941270E+02  3.3000000000E-01 0. 9.
</event>
<event>
    14   272  1.000000E+00  1.000127E+03  7.977259E-03  9.272933E-02
       1   -1    0    0  101    0  0.0000000000E+00  0.0000000000E+00  5.2593239846E+02  5.2593239846E+02  0.0000000000E+00 0. 9.
       2   -1    0    0  102    0  0.0000000000E+00  0.0000000000E+00 -1.9869738124E+03  1.9869738124E+03  0.0000000000E+00 0. 9.
 2000001    2    1    2  102    0  1.2989318921E+02  1.7446248529E+01 -9.9069682398E+02  1.4078837655E+03  9.9170554500E+02 0. 9.
 2000002    2    1    2  101    0 -1.2989318921E+02 -1.7446248529E+01 -4.7034458993E+02  1.1050224453E+03  9.9129912700E+02 0. 9.
 1000021    2    3    0  102  103  2.3252058548E+02  1.1985001191E+01 -8.6212154386E+02  1.2432814592E+03  8.6503512500E+02 0. 9.
       1    1    3    0  103    0 -1.0262739627E+02  5.4612473382E+00 -1.2857528012E+02  1.6460230632E+02  3.3000000000E-01 0. 9.
 1000021    2    4    0  101  104 -1.7532613786E+02 -1.1645969320E+02 -4.3180553110E+02  9.8946647185E+02  8.6503512500E+02 0. 9.
       2    1    4    0  104    0  4.5432948645E+01  9.9013444668E+01 -3.8539058836E+01  1.1555597347E+02  3.3000000000E-01 0. 9.
 1000022    1    5    0    0    0  1.4226512481E+02  1.8322295521E+01 -2.5309218511E+02  3.1821661326E+02  1.2896157000E+02 0. 9.
       2    1    5    0  102    0 -1.1968579466E+02 -4.7063889541E+01  1.1351396860E+02  1.7153783579E+02  3.3000000000E-01 0. 9.
      -2    1    5    0    0  103  2.0994125533E+02  4.0726595211E+01 -7.2254332735E+02  7.5352701016E+02  3.3000000000E-01 0. 9.
 1000022    1    7    0    0    0 -7.7707879028E+01 -2.2421682168E+02 -2.3652482214E+02  3.5900804394E+02  1.2896157000E+02 0. 9.
       2    1    7    0  101    0 -2.2857970773E+02 -1.6891241336E+02 -3.9347254064E+01  2.8692926215E+02  3.3000000000E-01 0. 9.
      -2    1    7    0    0  104  1.3096144891E+02  2.7666954184E+02 -1.5593345489E+02  3.4352916577E+02  3.3000000000E-01 0. 9.
</event>
<event>
    22   275  1.000000E+00  1.153522E+03  7.990353E-03  9.125597E-02
      -4   -1    0    0    0  101  0.0000000000E+00  0.0000000000E+00  1.1466853889E+03  1.1466853889E+03  0.0000000000E+00 0. 9.
       2   -1    0    0  101    0  0.0000000000E+00  0.0000000000E+00 -1.4876974439E+03  1.4876974439E+03  0.0000000000E+00 0. 9.
-2000004    2    1    2    0  102 -5.8734025745E+02  5.4505265266E+01  4.4731559113E+02  1.2372164723E+03  9.9129912700E+02 0. 9.
 2000002    2    1    2  102    0  5.8734025745E+02 -5.4505265266E+01 -7.8832764617E+02  1.3971663605E+03  9.9129912700E+02 0. 9.
 1000021    2    3    0  103  102 -5.7707487919E+02  6.7096106936E+01  2.9353610794E+02  1.0825740242E+03  8.6503512500E+02 0. 9.
      -4    1    3    0    0  103 -1.0265378263E+01 -1.2590841670E+01  1.5377948320E+02  1.5464244804E+02  1.5000000000E+00 0. 9.
 1000021    2    4    0  102  104  5.2846408361E+02  3.8737083766E+01 -7.9176394535E+02  1.2868375041E+03  8.6503512500E+02 0. 9.
       2    1    4    0  104    0  5.8876173842E+01 -9.3242349032E+01  3.4362991758E+00  1.1032885639E+02  3.3000000000E-01 0. 9.
 1000024    2    5    0    0    0 -6.7645099272E+01 -6.6353249592E-01 -1.7675019544E+02  3.2893305576E+02  2.6903535800E+02 0. 9.
      -2    1    5    0    0  102 -2.6512017889E+02 -1.0070217807E+02  1.6603950683E+02  3.2863180712E+02  3.3000000000E-01 0. 9.
       1    1    5    0  103    0 -2.4430960102E+02  1.6846181750E+02  3.0424679654E+02  4.2500916133E+02  3.3000000000E-01 0. 9.
-1000024    2    7    0    0    0 -3.5318589433E+01  2.5554272532E+02 -2.2969717042E+02  4.3782450956E+02  2.6903535800E+02 0. 9.
       4    1    7    0  102    0  4.6938922671E+01  3.6792305190E+01 -3.9866470573E+01  7.1753199641E+01  1.5000000000E+00 0. 9.
      -3    1    7    0    0  104  5.1684375037E+02 -2.5359794674E+02 -5.2220030436E+02  7.7725979489E+02  5.0000000000E-01 0. 9.
 1000022    1    9    0    0    0 -9.8143321743E+00 -7.8448566747E+01 -1.0250587074E+02  1.8272667789E+02  1.2896157000E+02 0. 9.
      24    2    9    0    0    0 -5.7830767098E+01  7.7785034251E+01 -7.4244324699E+01  1.4620637787E+02  8.0431188000E+01 0. 9.
 1000022    1   12    0    0    0 -4.5542729253E+01  7.2756219362E+01 -3.5180165585E+01  1.5885949210E+02  1.2896157000E+02 0. 9.
     -24    2   12    0    0    0  1.0224139820E+01  1.8278650596E+02 -1.9451700483E+02  2.7896501746E+02  8.0431188000E+01 0. 9.
      -3    1   16    0    0  105 -2.2078238460E+01  6.8353032164E+01 -8.1349232384E+01  1.0852434395E+02  5.0000000000E-01 0. 9.
       4    1   16    0  105    0 -3.5752528638E+01  9.4320020871E+00  7.1049076846E+00  3.7682033923E+01  1.5000000000E+00 0. 9.
       3    1   18    0  106    0  1.3820458211E+00  1.0014063734E+02 -1.6041355853E+02  1.8911059478E+02  5.0000000000E-01 0. 9.
      -4    1   18    0    0  106  8.8420939987E+00  8.2645868621E+01 -3.4103446305E+01  8.9854422686E+01  1.5000000000E+00 0. 9.
</event>
<event>
     6   247  1.000000E+00  7.137479E+02  7.946472E-03  9.640932E-02
      21   -1    0    0  101  102  0.0000000000E+00  0.0000000000E+00  2.7046334095E+02  2.7046334095E+02  0.0000000000E+00 0. 9.
       2   -1    0    0  102    0  0.0000000000E+00  0.0000000000E+00 -1.3030168325E+03  1.3030168325E+03  0.0000000000E+00 0. 9.
 1000022    1    1    2    0    0 -2.1234430185E+01  9.6605521623E+01 -4.0374157133E+01  1.6746547983E+02  1.2896157000E+02 0. 9.
 2000002    2    1    2  101    0  2.1234430185E+01 -9.6605521623E+01 -9.9217933438E+02  1.4060146936E+03  9.9129912700E+02 0. 9.
 1000022    1    4    0    0    0 -2.7723281182E+01 -1.9422262162E+02 -1.1721882414E+03  1.1954695174E+03  1.2896157000E+02 0. 9.
       2    1    4    0  101    0  4.8957711367E+01  9.7617099994E+01  1.8000890705E+02  2.1054517622E+02  3.3000000000E-01 0. 9.
</event>
<event>
    16   271  1.000000E+00  1.097960E+03  7.985818E-03  9.176036E-02
       1   -1    0    0  101    0  0.0000000000E+00  0.0000000000E+00  9.7392249809E+02  9.7392249809E+02  0.0000000000E+00 0. 9.
       2   -1    0    0  102    0  0.0000000000E+00  0.0000000000E+00 -1.6712187211E+03  1.6712187211E+03  0.0000000000E+00 0. 9.
 1000001    2    1    2  102    0  2.9117108059E+02  3.6723054155E+02  3.2458609206E+02  1.1461525203E+03  9.9431916400E+02 0. 9.
 1000002    2    1    2  101    0 -2.9117108059E+02 -3.6723054155E+02 -1.0218823151E+03  1.4989886988E+03  9.9150632100E+02 0. 9.
-1000024    2    3    0    0    0  2.0153540011E+02  4.0624382495E+02 -2.3558063545E+02  5.7751954292E+02  2.6903535800E+02 0. 9.
       2    1    3    0  102    0  8.9635680488E+01 -3.9013283395E+01  5.6016672751E+02  5.6863297742E+02  3.3000000000E-01 0. 9.
 1000024    2    4    0    0    0  3.2102633151E+02 -1.6360096888E+02 -3.7727806441E+02  5.8697695379E+02  2.6903535800E+02 0. 9.
       1    1    4    0  101    0 -6.1219741210E+02 -2.0362957267E+02 -6.4460425066E+02  9.1201174505E+02  3.3000000000E-01 0. 9.
 1000022    1    5    0    0    0  4.6736784987E+01  9.4336735327E+01 -1.0608421681E+02  1.9740489937E+02  1.2896157000E+02 0. 9.
     -24    2    5    0    0    0  1.5479861512E+02  3.1190708962E+02 -1.2949641864E+02  3.8011464355E+02  8.0431188000E+01 0. 9.
 1000022    1    7    0    0    0  2.8460445548E+02 -1.7852803209E+02 -3.0992502920E+02  4.7492795725E+02  1.2896157000E+02 0. 9.
      24    2    7    0    0    0  3.6421876029E+01  1.4927063206E+01 -6.7353035206E+01  1.1204899653E+02  8.0431188000E+01 0. 9.
       1    1   10    0  103    0  4.8847705432E+00  4.8254725272E+00 -2.0203991097E+01  2.1341422741E+01  3.3000000000E-01 0. 9.
      -2    1   10    0    0  103  1.4991384458E+02  3.0708161709E+02 -1.0929242755E+02  3.5877322081E+02  3.3000000000E-01 0. 9.
      -1    1   12    0    0  104  5.2883238862E+01  3.4318502907E+01 -3.9835396461E+01  7.4574555349E+01  3.3000000000E-01 0. 9.
       2    1   12    0  104    0 -1.6461362833E+01 -1.9391439700E+01 -2.7517638744E+01  3.7474441184E+01  3.3000000000E-01 0. 9.
</event>
<event>
    12   230  1.000000E+00  2.847000E+02  7.863788E-03  1.080967E-01
       2   -1    0    0  101    0  0.0000000000E+00  0.0000000000E+00  1.3416073794E+03  1.3416073794E+03  0.0000000000E+00 0. 9.
      -1   -1    0    0    0  101  0.0000000000E+00  0.0000000000E+00 -6.8328992155E+01  6.8328992155E+01  0.0000000000E+00 0. 9.
 1000024    2    1    2    0    0 -9.3124456595E+01 -6.3463332195E+00  8.7668134054E+02  9.2177146683E+02  2.6903535800E+02 0. 9.
 1000023    2    1    2    0    0  9.3124456595E+01  6.3463332195E+00  3.9659704667E+02  4.8816490469E+02  2.6889276000E+02 0. 9.
 1000022    1    3    0    0    0 -1.3238905355E+02 -2.7379039845E+01  4.9267838389E+02  5.2691512582E+02  1.2896157000E+02 0. 9.
      24    2    3    0    0    0  3.9264596959E+01  2.1032706625E+01  3.8400295665E+02  3.9485634102E+02  8.0431188000E+01 0. 9.
 1000022    1    4    0    0    0  4.5068563666E+01  2.6084078965E+00  2.6934327631E+02  3.0201798995E+02  1.2896157000E+02 0. 9.
      25    2    4    0    0    0  4.8055892929E+01  3.7379253230E+00  1.2725377035E+02  1.8614691473E+02  1.2701893900E+02 0. 9.
     -11    1    6    0    0    0  3.8412370147E+01  4.9649855362E+01  2.8267957155E+02  2.8956581029E+02  5.1000000000E-04 0. 9.
      12    1    6    0    0    0  8.5222681250E-01 -2.8617148737E+01  1.0132338510E+02  1.0529053072E+02  0.0000000000E+00 0. 9.
       5    1    8    0  102    0  5.6547158962E+01  4.8273503519E+01  3.3081144521E+01  8.1518798147E+01  4.8000000000E+00 0. 9.
      -5    1    8    0    0  102 -8.4912660325E+00 -4.4535578196E+01  9.4172625834E+01  1.0462811659E+02  4.8000000000E+00 0. 9.
</event>
<event>
    12   230  1.000000E+00  4.443749E+02  7.903626E-03  1.021008E-01
       2   -1    0    0  101    0  0.0000000000E+00  0.0000000000E+00  1.2426547246E+03  1.2426547246E+03  0.0000000000E+00 0. 9.
      -1   -1    0    0    0  101  0.0000000000E+00  0.0000000000E+00 -1.5914936558E+02  1.5914936558E+02  0.0000000000E+00 0. 9.
 1000024    2    1    2    0    0  3.5283398644E+02  2.5210990009E+01  5.1456916750E+02  6.7991828039E+02  2.6903535800E+02 0. 9.
 1000023    2    1    2    0    0 -3.5283398644E+02 -2.5210990009E+01  5.6893619154E+02  7.2188580982E+02  2.6889276000E+02 0. 9.
 1000022    1    3    0    0    0  3.3361217769E+02  1.5540645504E+01  3.8345486935E+02  5.2460205883E+02  1.2896157000E+02 0. 9.
      24    2    3    0    0    0  1.9221808748E+01  9.6703445044E+00  1.3111429815E+02  1.5531622156E+02  8.0431188000E+01 0. 9.
 1000022    1    4    0    0    0 -2.1026179773E+02  2.6433899274E+00  3.7041009787E+02  4.4503004195E+02  1.2896157000E+02 0. 9.
      25    2    4    0    0    0 -1.4257218871E+02 -2.7854379936E+01  1.9852609367E+02  2.7685576788E+02  1.2701893900E+02 0. 9.
      -1    1    6    0    0  102  1.6383863426E+01  4.3734962971E+01  5.6942213247E+01  7.3645790893E+01  3.3000000000E-01 0. 9.
       2    1    6    0  102    0  2.8379453225E+00 -3.4064618466E+01  7.4172084908E+01  8.1670430662E+01  3.3000000000E-01 0. 9.
       5    1    8    0  103    0 -1.3467698136E+02  1.3516933979E+01  1.9045727394E+02  2.3370410782E+02  4.8000000000E+00 0. 9.
      -5    1    8    0    0  103 -7.8952073417E+00 -4.1371313915E+01  8.0688197281E+00  4.3151660059E+01  4.8000000000E+00 0. 9.
</event>
<event>
    12   230  1.000000E+00  2.844503E+02  7.863710E-03  1.081092E-01
       1   -1    0    0  101    0  0.0000000000E+00  0.0000000000E+00  4.6297271343E+02  4.6297271343E+02  0.0000000000E+00 0. 9.
      -2   -1    0    0    0  101  0.0000000000E+00  0.0000000000E+00 -1.7956231864E+02  1.7956231864E+02  0.0000000000E+00 0. 9.
 1000023    2    1    2    0    0 -5.2010272980E+01  7.6584756557E+01  8.9166816358E+01  2.9803411038E+02  2.6889276000E+02 0. 9.
-1000024    2    1    2    0    0  5.2010272980E+01 -7.6584756557E+01  1.9424357843E+02  3.4450092169E+02  2.6903535800E+02 0. 9.
 1000022    1    3    0    0    0 -6.4273340284E+01  4.9628217010E+01  6.3546432127E+01  1.6511589193E+02  1.2896157000E+02 0. 9.
      25    2    3    0    0    0  1.2263067304E+01  2.6956539547E+01  2.5620384230E+01  1.3291821845E+02  1.2701893900E+02 0. 9.
 1000022    1    4    0    0    0 -4.6979353828E+01 -2.0272739048E+01  1.3308797848E+02  1.9225384310E+02  1.2896157000E+02 0. 9.
     -24    2    4    0    0    0  9.8989626808E+01 -5.6312017509E+01  6.1155599951E+01  1.5224707859E+02  8.0431188000E+01 0. 9.
       5    1    6    0  102    0 -2.6852695625E+01  6.6753675545E+01  2.0184669603E+00  7.2140381687E+01  4.8000000000E+00 0. 9.
      -5    1    6    0    0  102  3.9115762929E+01 -3.9797135998E+01  2.3601917270E+01  6.0777836766E+01  4.8000000000E+00 0. 9.
      11    1    8    0    0    0  2.9051272920E+01 -7.3190571526E+00  5.9754548797E+01  6.6844230552E+01  5.1000000000E-04 0. 9.
     -12    1    8    0    0    0  6.9938353889E+01 -4.8992960357E+01  1.4010511536E+00  8.5402848041E+01  0.0000000000E+00 0. 9.
</event>
<event>
    12   226  1.000000E+00  2.790837E+02  7.862014E-03  1.083815E-01
      -1   -1    0    0    0  101  0.0000000000E+00  0.0000000000E+00  4.9538918631E+01  4.9538918631E+01  0.0000000000E+00 0. 9.
       1   -1    0    0  101    0  0.0000000000E+00  0.0000000000E+00 -2.1371775304E+03  2.1371775304E+03  0.0000000000E+00 0. 9.
 1000024    2    1    2    0    0  5.7577019815E+01 -4.6824985371E+01 -1.6059500917E+03  1.6300194519E+03  2.6903535800E+02 0. 9.
-1000024    2    1    2    0    0 -5.7577019815E+01  4.6824985371E+01 -4.8168852004E+02  5.5669699717E+02  2.6903535800E+02 0. 9.
 1000022    1    3    0    0    0  6.7536998547E+01 -9.0151390464E+01 -7.5776378590E+02  7.7686907593E+02  1.2896157000E+02 0. 9.
      24    2    3    0    0    0 -9.9599787325E+00  4.3326405093E+01 -8.4818630583E+02  8.5315037593E+02  8.0431188000E+01 0. 9.
 1000022    1    4    0    0    0 -5.2312954480E+01 -2.7950528888E+01 -1.4672120868E+02  2.0414719416E+02  1.2896157000E+02 0. 9.
     -24    2    4    0    0    0 -5.2640653342E+00  7.4775514260E+01 -3.3496731136E+02  3.5254980301E+02  8.0431188000E+01 0. 9.
      -1    1    6    0    0  102 -2.0821990007E+01  6.3173436688E+01 -7.1164214416E+02  7.1474407211E+02  3.3000000000E-01 0. 9.
       2    1    6    0  102    0  1.0862011274E+01 -1.9847031595E+01 -1.3654416167E+02  1.3840630382E+02  3.3000000000E-01 0. 9.
      13    1    8    0    0    0  1.4357635941E+01  5.2563499892E+01 -3.0700590328E+02  3.1180394328E+02  1.0566000000E-01 0. 9.
     -14    1    8    0    0    0 -1.9621701275E+01  2.2212014367E+01 -2.7961408081E+01  4.0745859729E+01  0.0000000000E+00 0. 9.
</event>
<event>
    12   230  1.000000E+00  2.983258E+02  7.867952E-03  1.074343E-01
       1   -1    0    0  101    0  0.0000000000E+00  0.0000000000E+00  4.7077339460E+02  4.7077339460E+02  0.0000000000E+00 0. 9.
      -2   -1    0    0    0  101  0.0000000000E+00  0.0000000000E+00 -1.9406291913E+02  1.9406291913E+02  0.0000000000E+00 0. 9.
 1000023    2    1    2    0    0  1.0293635023E+02 -7.7850544896E+01  1.9176930221E+02  3.5459185156E+02  2.6889276000E+02 0. 9.
-1000024    2    1    2    0    0 -1.0293635023E+02  7.7850544896E+01  8.4941173260E+01  3.1024446217E+02  2.6903535800E+02 0. 9.
 1000022    1    3    0    0    0  3.9886361425E+01 -9.5300658998E+00  5.5027969023E+01  1.4608527611E+02  1.2896157000E+02 0. 9.
      25    2    3    0    0    0  6.3049988809E+01 -6.8320478996E+01  1.3674133319E+02  2.0850657545E+02  1.2701893900E+02 0. 9.
 1000022    1    4    0    0    0  1.4972428396E+01  2.6035818412E+01 -7.2401866549E+00  1.3261049842E+02  1.2896157000E+02 0. 9.
     -24    2    4    0    0    0 -1.1790877863E+02  5.1814726484E+01  9.2181359915E+01  1.7763396375E+02  8.0431188000E+01 0. 9.
       5    1    6    0  102    0 -3.8537609472E+01 -1.8848118763E+01  2.6980247742E+01  5.0905527135E+01  4.8000000000E+00 0. 9.
      -5    1    6    0    0  102  1.0158759828E+02 -4.9472360233E+01  1.0976108545E+02  1.5760104832E+02  4.8000000000E+00 0. 9.
      11    1    8    0    0    0 -4.0679195123E+01  5.0347383031E+01  7.3933998634E+01  9.8264398682E+01  5.1000000000E-04 0. 9.
     -12    1    8    0    0    0 -7.7229583506E+01  1.4673434521E+00  1.8247361281E+01  7.9369565068E+01  0.0000000000E+00 0. 9.
</event>
<event>
    17   258  1.000000E+00  1.022855E+03  7.979318E-03  9.249416E-02
      21   -1    0    0  101  102  0.0000000000E+00  0.0000000000E+00  7.7409656994E+02  7.7409656994E+02  0.0000000000E+00 0. 9.
       2   -1    0    0  102    0  0.0000000000E+00  0.0000000000E+00 -1.4570598268E+03  1.4570598268E+03  0.0000000000E+00 0. 9.
 1000021    2    1    2  101  103  2.5956732894E+02 -3.3640904933E+02 -1.7951516834E+01  9.6392648639E+02  8.6503512500E+02 0. 9.
 1000002    2    1    2  103    0 -2.5956732894E+02  3.3640904933E+02 -6.6501174003E+02  1.2672299104E+03  9.9150632100E+02 0. 9.
-1000024    2    3    0    0    0  2.7859086497E+02 -7.1850392759E+01 -1.9736450092E+02  4.4057702966E+02  2.6903535800E+02 0. 9.
       4    1    3    0  101    0  1.7252350577E+02 -3.7421551220E+01  5.4647349092E-01  1.7654257609E+02  1.5000000000E+00 0. 9.
      -3    1    3    0    0  103 -1.9154704180E+02 -2.2713710535E+02  1.7886651059E+02  3.4680688064E+02  5.0000000000E-01 0. 9.
 1000024    2    4    0    0    0 -1.1002666196E+02  6.1550533908E+02 -6.6354571243E+02  9.5059224966E+02  2.6903535800E+02 0. 9.
       1    1    4    0  103    0 -1.4954066699E+02 -2.7909628975E+02 -1.4660276070E+00  3.1663766069E+02  3.3000000000E-01 0. 9.
 1000022    1    5    0    0    0  1.1256123913E+02 -2.6024242404E+01 -1.7989945542E+02  2.4968418922E+02  1.2896157000E+02 0. 9.
     -24    2    5    0    0    0  1.6602962584E+02 -4.5826150355E+01 -1.7465045494E+01  1.9089284044E+02  8.0431188000E+01 0. 9.
 1000022    1    8    0    0    0 -1.0816438952E+02  3.0104754892E+02 -4.2731479280E+02  5.4914313303E+02  1.2896157000E+02 0. 9.
      24    2    8    0    0    0 -1.8622724315E+00  3.1445779016E+02 -2.3623091963E+02  4.0144911663E+02  8.0431188000E+01 0. 9.
       3    1   11    0  104    0  6.3490401116E+01 -3.8946510090E+00  3.0037570702E+01  7.0347032589E+01  5.0000000000E-01 0. 9.
      -4    1   11    0    0  104  1.0253922473E+02 -4.1931499346E+01 -4.7502616196E+01  1.2054580785E+02  1.5000000000E+00 0. 9.
     -13    1   13    0    0    0  5.6855618381E+00  1.0638460683E+02 -3.5658100781E+01  1.1234554508E+02  1.0566000000E-01 0. 9.
      14    1   13    0    0    0 -7.5478342696E+00  2.0807318334E+02 -2.0057281885E+02  2.8910357156E+02  0.0000000000E+00 0. 9.
</event>
<event>
    12   226  1.000000E+00  3.286807E+02  7.876597E-03  1.060867E-01
      -3   -1    0    0    0  101  0.0000000000E+00  0.0000000000E+00  1.3874840916E+03  1.3874840916E+03  0.0000000000E+00 0. 9.
       3   -1    0    0  101    0  0.0000000000E+00  0.0000000000E+00 -1.1966369685E+02  1.1966369685E+02  0.0000000000E+00 0. 9.
 1000024    2    1    2    0    0 -1.8192825909E+02  5.0528082939E+01  1.0793062867E+03  1.1282433528E+03  2.6903535800E+02 0. 9.
-1000024    2    1    2    0    0  1.8192825909E+02 -5.0528082939E+01  1.8851410805E+02  3.7890443572E+02  2.6903535800E+02 0. 9.
 1000022    1    3    0    0    0 -1.8995304112E+02  6.1280254618E+01  6.6997807965E+02  7.1087209903E+02  1.2896157000E+02 0. 9.
      24    2    3    0    0    0  8.0247820313E+00 -1.0752171679E+01  4.0932820710E+02  4.1737125374E+02  8.0431188000E+01 0. 9.
 1000022    1    4    0    0    0  6.1732250926E+00 -3.8845580770E+01  7.0635014199E+01  1.5220867131E+02  1.2896157000E+02 0. 9.
     -24    2    4    0    0    0  1.7575503400E+02 -1.1682502168E+01  1.1787909385E+02  2.2669576442E+02  8.0431188000E+01 0. 9.
      -3    1    6    0    0  102 -2.4772316690E+01 -1.1930024191E+01  3.3475068193E+02  3.3587834435E+02  5.0000000000E-01 0. 9.
       4    1    6    0  102    0  3.2797098722E+01  1.1778525120E+00  7.4577525167E+01  8.1492909392E+01  1.5000000000E+00 0. 9.
       1    1    8    0  103    0  7.9058044130E+01 -4.3635299550E+01  6.9492695444E+01  1.1394541381E+02  3.3000000000E-01 0. 9.
      -2    1    8    0    0  103  9.6696989870E+01  3.1952797382E+01  4.8386398410E+01  1.1275035061E+02  3.3000000000E-01 0. 9.
</event>
<event>
    24   259  1.000000E+00  9.515190E+02  7.972697E-03  9.325503E-02
      21   -1    0    0  101  102  0.0000000000E+00  0.0000000000E+00  3.9528609925E+02  3.9528609925E+02  0.0000000000E+00 0. 9.
       2   -1    0    0  102    0  0.0000000000E+00  0.0000000000E+00 -2.3051742276E+03  2.3051742276E+03  0.0000000000E+00 0. 9.
 1000021    2    1    2  101  103  1.3597189190E+02  1.4635627505E+02 -7.5506446675E+02  1.1654684170E+03  8.6503512500E+02 0. 9.
 2000002    2    1    2  103    0 -1.3597189190E+02 -1.4635627505E+02 -1.1548236616E+03  1.5349919098E+03  9.9129912700E+02 0. 9.
 1000023    2    3    0    0    0 -6.6108931040E+01  8.6455939089E+01 -2.6666573823E+02  3.9402912646E+02  2.6889276000E+02 0. 9.
       4    1    3    0  101    0 -1.3378711402E+02  7.9687936119E+01  2.4892605715E+01  1.5770558284E+02  1.5000000000E+00 0. 9.
      -4    1    3    0    0  103  3.3586793696E+02 -1.9787600163E+01 -5.1329133423E+02  6.1373370772E+02  1.5000000000E+00 0. 9.
 1000021    2    4    0  103  104 -2.2755989919E+01 -1.2135665970E+02 -8.9677634946E+02  1.2520937914E+03  8.6503512500E+02 0. 9.
       2    1    4    0  104    0 -1.1321590198E+02 -2.4999615345E+01 -2.5804731209E+02  2.8289811842E+02  3.3000000000E-01 0. 9.
 1000022    1    5    0    0    0 -5.7449777636E+01  4.5736471367E+01 -1.8584741861E+02  2.3782903798E+02  1.2896157000E+02 0. 9.
      25    2    5    0    0    0 -8.6591534037E+00  4.0719467723E+01 -8.0818319620E+01  1.5620008848E+02  1.2701893900E+02 0. 9.
 1000024    2    8    0    0    0 -1.2529288704E+02  1.8513002698E+02 -1.6835202457E+02  3.8819307369E+02  2.6903535800E+02 0. 9.
      -6    2    8    0    0  104 -1.2804146199E+01 -5.5374985902E+01 -2.2473394626E+02  2.8936814238E+02  1.7320000000E+02 0. 9.
       5    1    8    0  103    0  1.1534104332E+02 -2.5111170078E+02 -5.0369037863E+02  5.7453257529E+02  4.8000000000E+00 0. 9.
       5    1   11    0  105    0 -4.7210565909E+01  6.9563192480E+01 -4.1635159220E+01  9.3938287001E+01  4.8000000000E+00 0. 9.
      -5    1   11    0    0  105  3.8551412505E+01 -2.8843724758E+01 -3.9183160400E+01  6.2261801475E+01  4.8000000000E+00 0. 9.
 1000022    1   12    0    0    0 -1.7285460059E+01  1.6176843238E+02 -1.3457260876E+02  2.4740389328E+02  1.2896157000E+02 0. 9.
      24    2   12    0    0    0 -1.0800742698E+02  2.3361594595E+01 -3.3779415810E+01  1.4078918041E+02  8.0431188000E+01 0. 9.
     -24    2   13    0    0    0  2.6043751812E+01  2.8720714271E+01 -1.0281147067E+02  1.3617096218E+02  8.0431188000E+01 0. 9.
      -5    1   13    0    0  104 -3.8847898011E+01 -8.4095700173E+01 -1.2192247559E+02  1.5319718020E+02  4.8000000000E+00 0. 9.
      -1    1   18    0    0  106 -4.6531229106E+01  1.7041248827E+01 -5.6294475342E+01  7.4998241965E+01  3.3000000000E-01 0. 9.
       4    1   18    0  106    0 -6.1476197878E+01  6.3203457681E+00  2.2515059532E+01  6.5790938448E+01  1.5000000000E+00 0. 9.
       1    1   19    0  107    0  3.4134227290E+01 -1.2242597452E+00 -9.9229989201E+01  1.0494448028E+02  3.3000000000E-01 0. 9.
      -2    1   19    0    0  107 -8.0904754781E+00  2.9944974016E+01 -3.5814814690E+00  3.1226481899E+01  3.3000000000E-01 0. 9.
</event>
<event>
    24   259  1.000000E+00  1.033561E+03  7.980273E-03  9.238559E-02
      21   -1    0    0  101  102  0.0000000000E+00  0.0000000000E+00  4.4628941683E+02  4.4628941683E+02  0.0000000000E+00 0. 9.
       2   -1    0    0  102    0  0.0000000000E+00  0.0000000000E+00 -2.3997993795E+03  2.3997993795E+03  0.0000000000E+00 0. 9.
 1000021    2    1    2  101  103  4.3459190203E+02 -1.1789501308E+02 -8.1714204102E+02  1.2723113762E+03  8.6503512500E+02 0. 9.
 2000002    2    1    2  103    0 -4.3459190203E+02  1.1789501308E+02 -1.1363679216E+03  1.5737774201E+03  9.9129912700E+02 0. 9.
 1000024    2    3    0    0    0  8.4771902365E+01  1.5044213356E+02 -2.2133309454E+02  3.8882833432E+02  2.6903535800E+02 0. 9.
      -6    2    3    0    0  103  4.2887783243E+02 -2.7257944765E+02 -3.9191255562E+02  6.6470252120E+02  1.7320000000E+02 0. 9.
       5    1    3    0  101    0 -7.9057832767E+01  4.2423010152E+00 -2.0389639086E+02  2.1878052072E+02  4.8000000000E+00 0. 9.
 1000021    2    4    0  103  104 -3.2035834827E+02  9.7003234547E+01 -8.2460191648E+02  1.2410854874E+03  8.6503512500E+02 0. 9.
       2    1    4    0  104    0 -1.1423355375E+02  2.0891778533E+01 -3.1176600515E+02  3.3269193270E+02  3.3000000000E-01 0. 9.
 1000022    1    5    0    0    0 -2.5605686243E+01  1.1231492403E+02 -1.5525900677E+02  2.3239350045E+02  1.2896157000E+02 0. 9.
      24    2    5    0    0    0  1.1037758861E+02  3.8127209524E+01 -6.6074087766E+01  1.5643483388E+02  8.0431188000E+01 0. 9.
     -24    2    6    0    0    0  4.1477387552E+02 -2.9105613399E+02 -3.7701923847E+02  6.3668180681E+02  8.0431188000E+01 0. 9.
      -5    1    6    0    0  103  1.4103956912E+01  1.8476686343E+01 -1.4893317158E+01  2.8020714387E+01  4.8000000000E+00 0. 9.
-1000024    2    8    0    0    0 -1.0931622617E+01  9.2358390584E+01 -3.1747718822E+02  4.2640516130E+02  2.6903535800E+02 0. 9.
       2    1    8    0  103    0 -4.4252950060E+02 -7.5950221957E+01 -4.7903455542E+02  6.5656302766E+02  3.3000000000E-01 0. 9.
      -1    1    8    0    0  104  1.3310277494E+02  8.0595065920E+01 -2.8090172843E+01  1.5811729841E+02  3.3000000000E-01 0. 9.
      -3    1   11    0    0  105  1.2397791283E+00  6.2936089141E+00 -3.9043657280E+01  3.9570238049E+01  5.0000000000E-01 0. 9.
       4    1   11    0  105    0  1.0913780948E+02  3.1833600610E+01 -2.7030430486E+01  1.1686459583E+02  1.5000000000E+00 0. 9.
       1    1   12    0  106    0 -1.9661323501E+00  2.1542873461E+00 -4.9166206086E+00  5.7261408118E+00  3.3000000000E-01 0. 9.
      -2    1   12    0    0  106  4.1674000787E+02 -2.9321042134E+02 -3.7210261786E+02  6.3095566600E+02  3.3000000000E-01 0. 9.
 1000022    1   14    0    0    0 -2.7936681130E+01 -2.8566075249E+01 -1.1961378435E+02  1.8037467326E+02  1.2896157000E+02 0. 9.
     -24    2   14    0    0    0  1.7005058512E+01  1.2092446583E+02 -1.9786340387E+02  2.4603048804E+02  8.0431188000E+01 0. 9.
       3    1   22    0  107    0 -5.2757219402E+00  1.2201745730E+02 -1.7963143725E+02  2.1721831501E+02  5.0000000000E-01 0. 9.
      -2    1   22    0    0  107  2.2280780453E+01 -1.0929914675E+00 -1.8231966624E+01  2.8812173033E+01  3.3000000000E-01 0. 9.
</event>
<event>
    12   230  1.000000E+00  3.084504E+02  7.870928E-03  1.069663E-01
      -1   -1    0    0    0  101  0.0000000000E+00  0.0000000000E+00  4.1466167071E+02  4.1466167071E+02  0.0000000000E+00 0. 9.
       2   -1    0    0  101    0  0.0000000000E+00  0.0000000000E+00 -2.2976401171E+02  2.2976401171E+02  0.0000000000E+00 0. 9.
 1000023    2    1    2    0    0  1.5090466147E+02 -5.2680757585E+00  1.0445506066E+02  3.2559813506E+02  2.6889276000E+02 0. 9.
 1000024    2    1    2    0    0 -1.5090466147E+02  5.2680757585E+00  8.0442598347E+01  3.1882754737E+02  2.6903535800E+02 0. 9.
 1000022    1    3    0    0    0  1.1054015816E+02 -2.3579006210E+01  3.8414413602E+01  1.7573232432E+02  1.2896157000E+02 0. 9.
      25    2    3    0    0    0  4.0364503311E+01  1.8310930451E+01  6.6040647054E+01  1.4986581074E+02  1.2701893900E+02 0. 9.
 1000022    1    4    0    0    0 -5.5053473892E+00  2.8944879323E+01  7.2382699976E+01  1.5079276071E+02  1.2896157000E+02 0. 9.
      24    2    4    0    0    0 -1.4539931408E+02 -2.3676803565E+01  8.0598983709E+00  1.6803478666E+02  8.0431188000E+01 0. 9.
       5    1    6    0  102    0  2.7625811490E+01 -3.6095572829E+01 -1.7754646856E+01  4.9034103676E+01  4.8000000000E+00 0. 9.
      -5    1    6    0    0  102  1.2738691821E+01  5.4406503280E+01  8.3795293910E+01  1.0083170707E+02  4.8000000000E+00 0. 9.
      -1    1    8    0    0  103  2.4989432112E+00  1.3310176502E+01  7.6975111174E+00  1.5580952895E+01  3.3000000000E-01 0. 9.
       2    1    8    0  103    0 -1.4789825729E+02 -3.6986980067E+01  3.6238725352E-01  1.5245383376E+02  3.3000000000E-01 0. 9.
</event>
<event>
    12   230  1.000000E+00  2.755500E+02  7.860881E-03  1.085645E-01
      -3   -1    0    0    0  101  0.0000000000E+00  0.0000000000E+00  4.0208026139E+02  4.0208026139E+02  0.0000000000E+00 0. 9.
       4   -1    0    0  101    0  0.0000000000E+00  0.0000000000E+00 -1.9208139267E+02  1.9208139267E+02  0.0000000000E+00 0. 9.
 1000023    2    1    2    0    0 -5.2265236506E+01 -2.9231727580E+01  1.4358054203E+02  3.1065227711E+02  2.6889276000E+02 0. 9.
 1000024    2    1    2    0    0  5.2265236506E+01  2.9231727580E+01  6.6418326696E+01  2.8350937695E+02  2.6903535800E+02 0. 9.
 1000022    1    3    0    0    0 -4.5135133941E+01 -2.9584522948E+01  3.6803054470E+01  1.4456132148E+02  1.2896157000E+02 0. 9.
      25    2    3    0    0    0 -7.1301025651E+00  3.5279536752E-01  1.0677748756E+02  1.6609095563E+02  1.2701893900E+02 0. 9.
 1000022    1    4    0    0    0  2.4477179225E+01  8.5555146224E+01  8.7276818182E+01  1.7935201386E+02  1.2896157000E+02 0. 9.
      24    2    4    0    0    0  2.7788057281E+01 -5.6323418644E+01 -2.0858491486E+01  1.0415736309E+02  8.0431188000E+01 0. 9.
       5    1    6    0  102    0 -6.1762184458E+01 -6.0512335626E+00  8.7964249342E+01  1.0775868419E+02  4.8000000000E+00 0. 9.
      -5    1    6    0    0  102  5.4632081893E+01  6.4040289301E+00  1.8813238216E+01  5.8332271434E+01  4.8000000000E+00 0. 9.
     -15    1    8    0    0    0 -6.5927591566E+00 -3.2333470864E+01 -4.4961069176E+01  5.5799402164E+01  1.7770000000E+00 0. 9.
      16    1    8    0    0    0  3.4380816437E+01 -2.3989947780E+01  2.4102577690E+01  4.8357960923E+01  0.0000000000E+00 0. 9.
</event>
<event>
    12   230  1.000000E+00  3.407216E+02  7.879812E-03  1.055949E-01
       2   -1    0    0  101    0  0.0000000000E+00  0.0000000000E+00  2.7446040568E+02  2.7446040568E+02  0.0000000000E+00 0. 9.
      -1   -1    0    0    0  101  0.0000000000E+00  0.0000000000E+00 -4.6482140272E+02  4.6482140272E+02  0.0000000000E+00 0. 9.
 1000024    2    1    2    0    0 -1.8825430603E+02  9.1158462964E+01 -2.0609720830E+02  3.9825322626E+02  2.6903535800E+02 0. 9.
 1000023    2    1    2    0    0  1.8825430603E+02 -9.1158462964E+01  1.5736211255E+01  3.4102858213E+02  2.6889276000E+02 0. 9.
 1000022    1    3    0    0    0 -1.5089621099E+02  5.8970105656E+01 -2.2087240313E+02  3.0275872382E+02  1.2896157000E+02 0. 9.
      24    2    3    0    0    0 -3.7358095042E+01  3.2188357308E+01  1.4775194829E+01  9.5494502442E+01  8.0431188000E+01 0. 9.
 1000022    1    4    0    0    0  9.4942974385E+01 -4.5519602346E+01  4.9124851724E+01  1.7358150874E+02  1.2896157000E+02 0. 9.
      25    2    4    0    0    0  9.3311331642E+01 -4.5638860618E+01 -3.3388640469E+01  1.6744707339E+02  1.2701893900E+02 0. 9.
      -1    1    6    0    0  102 -7.6135900376E+00  5.3928560106E+01  2.0527166397E+01  5.8204207826E+01  3.3000000000E-01 0. 9.
       2    1    6    0  102    0 -2.9744505004E+01 -2.1740202798E+01 -5.7519715682E+00  3.7290294616E+01  3.3000000000E-01 0. 9.
       5    1    8    0  103    0  1.1269231065E+02  1.5488826650E+00 -2.1216755359E+01  1.1478304154E+02  4.8000000000E+00 0. 9.
      -5    1    8    0    0  103 -1.9380979012E+01 -4.7187743283E+01 -1.2171885110E+01  5.2664031850E+01  4.8000000000E+00 0. 9.
</event>
<event>
    12   230  1.000000E+00  4.154551E+02  7.897579E-03  1.029640E-01
      -1   -1    0    0    0  101  0.0000000000E+00  0.0000000000E+00  8.3640744789E+02  8.3640744789E+02  0.0000000000E+00 0. 9.
       2   -1    0    0  101    0  0.0000000000E+00  0.0000000000E+00 -2.5397768161E+02  2.5397768161E+02  0.0000000000E+00 0. 9.
 1000023    2    1    2    0    0  1.2361835726E+02 -2.9151291288E+02  5.5126698976E+01  4.1905076774E+02  2.6889276000E+02 0. 9.
 1000024    2    1    2    0    0 -1.2361835726E+02  2.9151291288E+02  5.2730306730E+02  6.7133436175E+02  2.6903535800E+02 0. 9.
 1000022    1    3    0    0    0  5.7267645383E+01 -1.9369352394E+02  1.0378244596E+01  2.3986571018E+02  1.2896157000E+02 0. 9.
      25    2    3    0    0    0  6.6350711882E+01 -9.7819388938E+01  4.4748454380E+01  1.7918505756E+02  1.2701893900E+02 0. 9.
 1000022    1    4    0    0    0 -3.5557052857E+01  2.3950853120E+02  4.2487149738E+02  5.0574253959E+02  1.2896157000E+02 0. 9.
      24    2    4    0    0    0 -8.8061304408E+01  5.2004381680E+01  1.0243156992E+02  1.6559182216E+02  8.0431188000E+01 0. 9.
       5    1    6    0  102    0  9.0148119991E+01 -6.0198324290E+01 -9.4123133715E+00  1.0891351352E+02  4.8000000000E+00 0. 9.
      -5    1    6    0    0  102 -2.3797408109E+01 -3.7621064648E+01  5.4160767751E+01  7.0271544037E+01  4.8000000000E+00 0. 9.
     -13    1    8    0    0    0 -3.5176182966E+01 -1.8906021593E+01  1.9936278794E+01  4.4634828069E+01  1.0566000000E-01 0. 9.
      14    1    8    0    0    0 -5.2885121441E+01  7.0910403274E+01  8.2495291125E+01  1.2095699409E+02  0.0000000000E+00 0. 9.
</event>
<event>
    17   258  1.000000E+00  1.001765E+03  7.977409E-03  9.271216E-02
      21   -1    0    0  101  102  0.0000000000E+00  0.0000000000E+00  9.7132763337E+02  9.7132763337E+02  0.0000000000E+00 0. 9.
       2   -1    0    0  102    0  0.0000000000E+00  0.0000000000E+00 -1.2266885395E+03  1.2266885395E+03  0.0000000000E+00 0. 9.
 1000021    2    1    2  101  103  3.3241788289E+02  1.6536669818E+02  3.1848101921E+02  9.9376240662E+02  8.6503512500E+02 0. 9.
 1000002    2    1    2  103    0 -3.3241788289E+02 -1.6536669818E+02 -5.7384192539E+02  1.2042537663E+03  9.9150632100E+02 0. 9.
 1000024    2    3    0    0    0 -1.3450345563E+02  9.3764541776E+01 -1.2708357327E+01  3.1531649984E+02  2.6903535800E+02 0. 9.
      -2    1    3    0    0  103  1.5245521304E+02  1.8767519640E+02  2.1534865274E+02  3.2378962686E+02  3.3000000000E-01 0. 9.
       1    1    3    0  101    0  3.1446612549E+02 -1.1607304000E+02  1.1584072379E+02  3.5465627992E+02  3.3000000000E-01 0. 9.
 1000023    2    4    0    0    0 -2.3371596608E+02 -3.1498335935E+02 -7.9083779019E+02  9.2280301053E+02  2.6889276000E+02 0. 9.
       2    1    4    0  103    0 -9.8701916819E+01  1.4961666117E+02  2.1699586480E+02  2.8145075577E+02  3.3000000000E-01 0. 9.
 1000022    1    5    0    0    0 -7.2516881482E+01  1.3085397380E+02  2.8620615662E+01  1.9957877326E+02  1.2896157000E+02 0. 9.
      24    2    5    0    0    0 -6.1986574150E+01 -3.7089432021E+01 -4.1328972989E+01  1.1573772658E+02  8.0431188000E+01 0. 9.
 1000022    1    8    0    0    0 -1.5864830611E+02 -1.8831128334E+02 -5.1636613093E+02  5.8642603299E+02  1.2896157000E+02 0. 9.
      25    2    8    0    0    0 -7.5067659964E+01 -1.2667207600E+02 -2.7447165926E+02  3.3637697753E+02  1.2701893900E+02 0. 9.
      -3    1   11    0    0  104 -2.2533285838E+01 -3.6277345028E+01  1.6437801716E+01  4.5762933234E+01  5.0000000000E-01 0. 9.
       4    1   11    0  104    0 -3.9453288312E+01 -8.1208699219E-01 -5.7766774705E+01  6.9974793346E+01  1.5000000000E+00 0. 9.
       5    1   13    0  105    0 -2.1381458874E+01 -3.2465376769E+01 -2.0224971651E+02  2.0600765836E+02  4.8000000000E+00 0. 9.
      -5    1   13    0    0  105 -5.3686201090E+01 -9.4206699235E+01 -7.2221942753E+01  1.3036931918E+02  4.8000000000E+00 0. 9.
</event>
<event>
    17   258  1.000000E+00  1.067342E+03  7.983223E-03  9.205186E-02
      21   -1    0    0  101  102  0.0000000000E+00  0.0000000000E+00  8.3822092335E+02  8.3822092335E+02  0.0000000000E+00 0. 9.
       2   -1    0    0  102    0  0.0000000000E+00  0.0000000000E+00 -1.3967227674E+03  1.3967227674E+03  0.0000000000E+00 0. 9.
 1000021    2    1    2  101  103 -4.0882502420E+02  3.2618415445E+02 -7.3460672980E+01  1.0135167690E+03  8.6503512500E+02 0. 9.
 1000002    2    1    2  103    0  4.0882502420E+02 -3.2618415445E+02 -4.8504117105E+02  1.2214269218E+03  9.9150632100E+02 0. 9.
 1000024    2    3    0    0    0 -4.5565973508E+02  4.9849217029E+01 -3.1433409803E+02  6.1749225716E+02  2.6903535800E+02 0. 9.
      -2    1    3    0    0  103 -4.2133033466E+01  1.5269186123E+02  9.2756145720E+01  1.8355873301E+02  3.3000000000E-01 0. 9.
       1    1    3    0  101    0  8.8967744350E+01  1.2364307619E+02  1.4811727933E+02  2.1246577880E+02  3.3000000000E-01 0. 9.
 1000024    2    4    0    0    0  3.9018655273E+02 -4.2021734448E+02 -7.2518211484E+02  9.6285891286E+02  2.6903535800E+02 0. 9.
       1    1    4    0  103    0  1.8638471465E+01  9.4033190036E+01  2.4014094379E+02  2.5856800891E+02  3.3000000000E-01 0. 9.
 1000022    1    5    0    0    0 -3.1497786073E+02  4.8812421055E+01 -1.1936546316E+02  3.6396827545E+02  1.2896157000E+02 0. 9.
      24    2    5    0    0    0 -1.4068187435E+02  1.0367959749E+00 -1.9496863487E+02  2.5352398172E+02  8.0431188000E+01 0. 9.
 1000022    1    8    0    0    0  2.6803911032E+02 -3.4322363640E+02 -6.1375441763E+02  7.6352668647E+02  1.2896157000E+02 0. 9.
      24    2    8    0    0    0  1.2214744241E+02 -7.6993708084E+01 -1.1142769721E+02  1.9933222640E+02  8.0431188000E+01 0. 9.
      -1    1   11    0    0  104 -8.5330487025E+00  7.6009398992E+00 -7.1968599430E+01  7.2870950395E+01  3.3000000000E-01 0. 9.
       2    1   11    0  104    0 -1.3214882565E+02 -6.5641439242E+00 -1.2300003544E+02  1.8065303132E+02  3.3000000000E-01 0. 9.
     -11    1   13    0    0    0  1.2273413727E+02 -8.9532972827E+01 -1.0774795688E+02  1.8625102385E+02  5.1000000000E-04 0. 9.
      12    1   13    0    0    0 -5.8669485824E-01  1.2539264743E+01 -3.6797403353E+00  1.3081202547E+01  0.0000000000E+00 0. 9.
</event>
<event>
    12   230  1.000000E+00  3.477561E+02  7.881639E-03  1.053176E-01
       2   -1    0    0  101    0  0.0000000000E+00  0.0000000000E+00  1.2581838708E+03  1.2581838708E+03  0.0000000000E+00 0. 9.
      -1   -1    0    0    0  101  0.0000000000E+00  0.0000000000E+00 -9.7325500864E+01  9.7325500864E+01  0.0000000000E+00 0. 9.
 1000024    2    1    2    0    0 -1.6420255386E+02 -1.4707196623E+02  5.0503250040E+02  6.1321325186E+02  2.6903535800E+02 0. 9.
 1000023    2    1    2    0    0  1.6420255386E+02  1.4707196623E+02  6.5582586957E+02  7.4229611983E+02  2.6889276000E+02 0. 9.
 1000022    1    3    0    0    0 -8.8228235622E+01 -1.3243621284E+02  1.9148092168E+02  2.8039187210E+02  1.2896157000E+02 0. 9.
      24    2    3    0    0    0 -7.5974318233E+01 -1.4635753390E+01  3.1355157872E+02  3.3282137976E+02  8.0431188000E+01 0. 9.
 1000022    1    4    0    0    0  6.0159347395E+01  4.0983599757E+01  2.2723866715E+02  2.7123292742E+02  1.2896157000E+02 0. 9.
      25    2    4    0    0    0  1.0404320646E+02  1.0608836648E+02  4.2858720241E+02  4.7106319242E+02  1.2701893900E+02 0. 9.
     -15    1    6    0    0    0 -6.4291693759E+00  2.8675219998E+01  7.3687065143E+01  7.9350764074E+01  1.7770000000E+00 0. 9.
      16    1    6    0    0    0 -6.9545148857E+01 -4.3310973388E+01  2.3986451357E+02  2.5347061569E+02  0.0000000000E+00 0. 9.
     -15    1    8    0    0    0  3.7610247986E-01  6.8162422781E+01  2.6554151488E+02  2.7415636266E+02  1.7770000000E+00 0. 9.
      15    1    8    0    0    0  1.0366710398E+02  3.7925943696E+01  1.6304568753E+02  1.9690682976E+02  1.7770000000E+00 0. 9.
</event>
<event>
    17   258  1.000000E+00  9.489567E+02  7.972450E-03  9.328366E-02
      21   -1    0    0  101  102  0.0000000000E+00  0.0000000000E+00  1.0657576495E+03  1.0657576495E+03  0.0000000000E+00 0. 9.
      -1   -1    0    0    0  101  0.0000000000E+00  0.0000000000E+00 -8.4671596827E+02  8.4671596827E+02  0.0000000000E+00 0. 9.
 1000021    2    1    2  103  102 -1.3448530677E+02  1.1812816678E+02  2.5054665650E+01  8.8371605467E+02  8.6503512500E+02 0. 9.
-1000001    2    1    2    0  103  1.3448530677E+02 -1.1812816678E+02  1.9398701557E+02  1.0287575631E+03  9.9431916400E+02 0. 9.
-1000024    2    3    0    0    0 -2.8113477520E+02  1.6731952603E+02  2.7475289472E+02  5.0487796806E+02  2.6903535800E+02 0. 9.
       2    1    3    0  103    0  1.9879763154E+02 -3.3805211982E+01 -2.5398006608E+02  3.2429812446E+02  3.3000000000E-01 0. 9.
      -1    1    3    0    0  102 -5.2148163111E+01 -1.5386147269E+01  4.2818370076E+00  5.4539962154E+01  3.3000000000E-01 0. 9.
 1000024    2    4    0    0    0 -1.2525352676E+02  8.0147226502E+01 -3.0452245118E+02  4.3269616478E+02  2.6903535800E+02 0. 9.
      -2    1    4    0    0  103  2.5973883354E+02 -1.9827539328E+02  4.9850946675E+02  5.9606139832E+02  3.3000000000E-01 0. 9.
 1000022    1    5    0    0    0 -1.7065938150E+02  7.0526680871E+01  2.4848175986E+02  3.3536980891E+02  1.2896157000E+02 0. 9.
     -24    2    5    0    0    0 -1.1047539370E+02  9.6792845160E+01  2.6271134860E+01  1.6950815915E+02  8.0431188000E+01 0. 9.
 1000022    1    8    0    0    0 -1.3478459968E+01  6.1430115222E+01 -2.3967442115E+02  2.7933893862E+02  1.2896157000E+02 0. 9.
      24    2    8    0    0    0 -1.1177506679E+02  1.8717111279E+01 -6.4848030033E+01  1.5335722615E+02  8.0431188000E+01 0. 9.
      15    1   11    0    0    0  1.2639577904E+01  7.4740193601E+00 -1.5855522737E+00  1.4875873083E+01  1.7770000000E+00 0. 9.
     -16    1   11    0    0    0 -1.2311497160E+02  8.9318825800E+01  2.7856687134E+01  1.5463228606E+02  0.0000000000E+00 0. 9.
      -3    1   13    0    0  104 -6.4154411992E+01  1.2003526014E+01 -7.9687449141E+01  1.0300588704E+02  5.0000000000E-01 0. 9.
       4    1   13    0  104    0 -4.7620654802E+01  6.7135852653E+00  1.4839419108E+01  5.0351339112E+01  1.5000000000E+00 0. 9.
</event>
<event>
    12   230  1.000000E+00  2.811131E+02  7.862659E-03  1.082778E-01
      -1   -1    0    0    0  101  0.0000000000E+00  0.0000000000E+00  2.0283095394E+02  2.0283095394E+02  0.0000000000E+00 0. 9.
       2   -1    0    0  101    0  0.0000000000E+00  0.0000000000E+00 -3.9573601202E+02  3.9573601202E+02  0.0000000000E+00 0. 9.
 1000023    2    1    2    0    0 -1.9210930685E+01 -7.9459559285E+01 -1.3367229600E+02  3.1121452491E+02  2.6889276000E+02 0. 9.
 1000024    2    1    2    0    0  1.9210930685E+01  7.9459559285E+01 -5.9232762083E+01  2.8735244105E+02  2.6903535800E+02 0. 9.
 1000022    1    3    0    0    0  2.0771143772E+01 -1.5547376643E+01 -8.0537181031E+01  1.5424164613E+02  1.2896157000E+02 0. 9.
      25    2    3    0    0    0 -3.9982074457E+01 -6.3912182642E+01 -5.3135114965E+01  1.5697287879E+02  1.2701893900E+02 0. 9.
 1000022    1    4    0    0    0  2.6574315749E+01 -3.6135857585E+01 -5.2144048465E+01  1.4615773256E+02  1.2896157000E+02 0. 9.
      24    2    4    0    0    0 -7.3633850635E+00  1.1559541687E+02 -7.0887136178E+00  1.4119470849E+02  8.0431188000E+01 0. 9.
       5    1    6    0  102    0 -5.5430369981E+01 -8.5624913062E+01 -7.1144833738E+01  1.2445392328E+02  4.8000000000E+00 0. 9.
      -5    1    6    0    0  102  1.5448295524E+01  2.1712730420E+01  1.8009718772E+01  3.2518955505E+01  4.8000000000E+00 0. 9.
      -1    1    8    0    0  103  7.4597069752E+00  1.2077607807E+02  5.4025502509E+00  1.2112722531E+02  3.3000000000E-01 0. 9.
       2    1    8    0  103    0 -1.4823092039E+01 -5.1806611994E+00 -1.2491263869E+01  2.0067483178E+01  3.3000000000E-01 0. 9.
</event>
<event>
    18   244  1.000000E+00  9.377019E+02  7.971359E-03  9.341051E-02
      21   -1    0    0  101  102  0.0000000000E+00  0.0000000000E+00  1.9711976623E+03  1.9711976623E+03  0.0000000000E+00 0. 9.
      21   -1    0    0  103  101  0.0000000000E+00  0.0000000000E+00 -8.2655975883E+02  8.2655975883E+02  0.0000000000E+00 0. 9.
 1000021    2    1    2  104  102 -5.4635741115E+01  3.5779051586E+02  1.5214288849E+03  1.7871851434E+03  8.6503512500E+02 0. 9.
 1000021    2    1    2  103  104  5.4635741115E+01 -3.5779051586E+02 -3.7679098140E+02  1.0105722778E+03  8.6503512500E+02 0. 9.
 1000024    2    3    0    0    0  2.4286575002E+02  4.6235280782E+02  8.0884293358E+02  9.9968035215E+02  2.6903535800E+02 0. 9.
      -2    1    3    0    0  102 -2.4681018003E+00 -2.0034018641E+01  1.4266074100E+01  2.4720097080E+01  3.3000000000E-01 0. 9.
       1    1    3    0  104    0 -2.9503338933E+02 -8.4528273320E+01  6.9831987720E+02  7.6278469413E+02  3.3000000000E-01 0. 9.
 1000024    2    4    0    0    0 -1.3828213777E-01 -1.3616889603E+02 -3.3526797317E+02  4.5091753687E+02  2.6903535800E+02 0. 9.
      -4    1    4    0    0  104  4.2521935770E+00  1.6414745396E+02  2.1184001115E+01  1.6557016547E+02  1.5000000000E+00 0. 9.
       3    1    4    0  103    0  5.0521829676E+01 -3.8576907379E+02 -6.2707009345E+01  3.9408457543E+02  5.0000000000E-01 0. 9.
 1000022    1    5    0    0    0  1.1591849436E+02  3.7514689138E+02  5.8696378887E+02  7.1786479467E+02  1.2896157000E+02 0. 9.
      24    2    5    0    0    0  1.2694725565E+02  8.7205916445E+01  2.2187914470E+02  2.8181555748E+02  8.0431188000E+01 0. 9.
 1000022    1    8    0    0    0  3.0036475369E+01 -2.8689158587E-01 -9.9825303691E+01  1.6582656588E+02  1.2896157000E+02 0. 9.
      24    2    8    0    0    0 -3.0174757507E+01 -1.3588200444E+02 -2.3544266948E+02  2.8509097098E+02  8.0431188000E+01 0. 9.
     -11    1   12    0    0    0  7.4798827664E+01  6.5689686158E+01  1.9582724838E+02  2.1967774283E+02  5.1000000000E-04 0. 9.
      12    1   12    0    0    0  5.2148427991E+01  2.1516230287E+01  2.6051896328E+01  6.2137814654E+01  0.0000000000E+00 0. 9.
      -1    1   14    0    0  105  2.1392622758E+01 -8.5137598231E+01 -1.4149304459E+02  1.6651259865E+02  3.3000000000E-01 0. 9.
       2    1   14    0  105    0 -5.1567380264E+01 -5.0744406209E+01 -9.3949624889E+01  1.1857837234E+02  3.3000000000E-01 0. 9.
</event>
<event>
    20   259  1.000000E+00  9.539009E+02  7.972926E-03  9.322851E-02
      21   -1    0    0  101  102  0.0000000000E+00  0.0000000000E+00  9.1761014046E+02  9.1761014046E+02  0.0000000000E+00 0. 9.
       2   -1    0    0  102    0  0.0000000000E+00  0.0000000000E+00 -1.3696894140E+03  1.3696894140E+03  0.0000000000E+00 0. 9.
 1000021    2    1    2  101  103 -5.9501125263E+01  2.0225381382E+02  3.8770700004E+02  9.7110734447E+02  8.6503512500E+02 0. 9.
 2000002    2    1    2  103    0  5.9501125263E+01 -2.0225381382E+02 -8.3978627356E+02  1.3161922100E+03  9.9129912700E+02 0. 9.
 1000024    2    3    0    0    0 -1.8655405796E+01  1.8919982923E+02  1.9794444912E+02  3.8432620043E+02  2.6903535800E+02 0. 9.
      -4    1    3    0    0  103  1.9703107879E+02  1.3155913743E+02 -3.4020600692E+01  2.3935058789E+02  1.5000000000E+00 0. 9.
       3    1    3    0  101    0 -2.3787679826E+02 -1.1850515284E+02  2.2378315161E+02  3.4743055615E+02  5.0000000000E-01 0. 9.
 1000021    2    4    0  103  104  1.1594457643E+02 -7.8050420459E+01 -7.0843566853E+02  1.1268104884E+03  8.6503512500E+02 0. 9.
       2    1    4    0  104    0 -5.6443451171E+01 -1.2420339336E+02 -1.3135060503E+02  1.8938172152E+02  3.3000000000E-01 0. 9.
 1000022    1    5    0    0    0  4.5478878396E+01  1.4732339426E+02  1.8378250831E+02  2.7235933576E+02  1.2896157000E+02 0. 9.
      24    2    5    0    0    0 -6.4134284191E+01  4.1876434968E+01  1.4161940813E+01  1.1196686467E+02  8.0431188000E+01 0. 9.
 1000023    2    8    0    0    0  1.3295896752E+02 -2.3089154055E+02 -4.4407021018E+02  5.8351577399E+02  2.6889276000E+02 0. 9.
       2    1    8    0  103    0 -1.8319994859E+02  6.6331382387E+01  2.7194377976E+01  1.9672751852E+02  3.3000000000E-01 0. 9.
      -2    1    8    0    0  104  1.6618555750E+02  8.6509737704E+01 -2.9155983632E+02  3.4656719593E+02  3.3000000000E-01 0. 9.
      -1    1   11    0    0  105 -8.2282592458E+01  4.2873132009E+01  1.0019276051E+01  9.3322158475E+01  3.3000000000E-01 0. 9.
       2    1   11    0  105    0  1.8148308267E+01 -9.9669704137E-01  4.1426647618E+00  1.8644706199E+01  3.3000000000E-01 0. 9.
 1000022    1   12    0    0    0  4.2634860056E+01 -6.5573047580E+01 -1.9208510656E+02  2.4422393527E+02  1.2896157000E+02 0. 9.
      25    2   12    0    0    0  9.0324107466E+01 -1.6531849297E+02 -2.5198510362E+02  3.3929183872E+02  1.2701893900E+02 0. 9.
       5    1   18    0  106    0  2.9157011271E+00 -3.9284161369E+01 -1.4970697360E+02  1.5487725653E+02  4.8000000000E+00 0. 9.
      -5    1   18    0    0  106  8.7408406339E+01 -1.2603433160E+02 -1.0227813003E+02  1.8441458219E+02  4.8000000000E+00 0. 9.
</event>
<event>
    18   244  1.000000E+00  1.234680E+03  7.996608E-03  9.057028E-02
      21   -1    0    0  101  102  0.0000000000E+00  0.0000000000E+00  1.0127440165E+03  1.0127440165E+03  0.0000000000E+00 0. 9.
      21   -1    0    0  103  104  0.0000000000E+00  0.0000000000E+00 -1.5072692523E+03  1.5072692523E+03  0.0000000000E+00 0. 9.
 1000021    2    1    2  101  104 -1.4688632168E+02 -8.6866197595E+02 -2.9335765862E+02  1.2690522855E+03  8.6503512500E+02 0. 9.
 1000021    2    1    2  103  102  1.4688632168E+02  8.6866197595E+02 -2.0116757717E+02  1.2509609832E+03  8.6503512500E+02 0. 9.
 1000023    2    3    0    0    0  9.3821924811E+01 -5.9093050850E+02  2.6388735240E+01  6.5650674116E+02  2.6889276000E+02 0. 9.
       1    1    3    0  101    0 -5.9531347459E+01 -4.1984866222E+01  8.3965738707E+01  1.1116233399E+02  3.3000000000E-01 0. 9.
      -1    1    3    0    0  104 -1.8117689904E+02 -2.3574660123E+02 -4.0371213257E+02  5.0138321035E+02  3.3000000000E-01 0. 9.
 1000023    2    4    0    0    0 -3.2805888435E+00  9.9765589531E+01 -1.9820144943E+01  2.8750667756E+02  2.6889276000E+02 0. 9.
       5    1    4    0  103    0  9.7612043562E+01  6.8182303885E+02  6.9929950920E+01  6.9233229405E+02  4.8000000000E+00 0. 9.
      -5    1    4    0    0  102  5.2554866966E+01  8.7073347575E+01 -2.5127738314E+02  2.7112201161E+02  4.8000000000E+00 0. 9.
 1000022    1    5    0    0    0  2.5571735837E+01 -2.2019863187E+02 -1.2894586554E+01  2.5678533457E+02  1.2896157000E+02 0. 9.
      25    2    5    0    0    0  6.8250188974E+01 -3.7073187663E+02  3.9283321794E+01  3.9972140658E+02  1.2701893900E+02 0. 9.
 1000022    1    8    0    0    0  3.8826591964E+01  5.4647334626E+01 -3.9256931218E+00  1.4539715619E+02  1.2896157000E+02 0. 9.
      25    2    8    0    0    0 -4.2107180807E+01  4.5118254906E+01 -1.5894451822E+01  1.4210952137E+02  1.2701893900E+02 0. 9.
       5    1   12    0  105    0 -2.1199242849E+01 -2.8553781231E+01  2.8537330825E+01  4.5849161067E+01  4.8000000000E+00 0. 9.
      -5    1   12    0    0  105  8.9449431823E+01 -3.4217809540E+02  1.0745990969E+01  3.5387224552E+02  4.8000000000E+00 0. 9.
       5    1   14    0  106    0 -3.0152672193E+01 -1.5760948705E+01  4.3941877207E+01  5.5780997812E+01  4.8000000000E+00 0. 9.
      -5    1   14    0    0  106 -1.1954508614E+01  6.0879203610E+01 -5.9836329029E+01  8.6328523560E+01  4.8000000000E+00 0. 9.
</event>
<event>
    14   254  1.000000E+00  8.411552E+02  7.961431E-03  9.458185E-02
      21   -1    0    0  101  102  0.0000000000E+00  0.0000000000E+00  2.7734510743E+02  2.7734510743E+02  0.0000000000E+00 0. 9.
       2   -1    0    0  102    0  0.0000000000E+00  0.0000000000E+00 -2.3945286871E+03  2.3945286871E+03  0.0000000000E+00 0. 9.
 1000024    2    1    2    0    0  1.4310244119E+02  3.9564944312E+02 -1.0026843049E+03  1.1201663402E+03  2.6903535800E+02 0. 9.
 1000001    2    1    2  101    0 -1.4310244119E+02 -3.9564944312E+02 -1.1144992747E+03  1.5517074543E+03  9.9431916400E+02 0. 9.
 1000022    1    3    0    0    0  1.5899336695E+02  3.4761291609E+02 -7.8307019249E+02  8.8087663329E+02  1.2896157000E+02 0. 9.
      24    2    3    0    0    0 -1.5890925761E+01  4.8036527033E+01 -2.1961411241E+02  2.3928970689E+02  8.0431188000E+01 0. 9.
-1000024    2    4    0    0    0  6.8737255483E+01 -3.7030571351E+02 -1.2263693824E+03  1.3108062472E+03  2.6903535800E+02 0. 9.
       2    1    4    0  101    0 -2.1183969667E+02 -2.5343729614E+01  1.1187010765E+02  2.4090120714E+02  3.3000000000E-01 0. 9.
      -3    1    6    0    0  103  2.9367109901E+00  5.0154410755E+01 -2.1348898127E+02  2.1932141782E+02  5.0000000000E-01 0. 9.
       4    1    6    0  103    0 -1.8827636751E+01 -2.1178837222E+00 -6.1251311427E+00  1.9968289076E+01  1.5000000000E+00 0. 9.
 1000022    1    7    0    0    0  4.1337487927E+01 -7.7462775304E+01 -3.6032318078E+02  3.9264888973E+02  1.2896157000E+02 0. 9.
     -24    2    7    0    0    0  2.7399767556E+01 -2.9284293820E+02 -8.6604620160E+02  9.1815735744E+02  8.0431188000E+01 0. 9.
       1    1   12    0  104    0 -2.5809263467E+01 -1.2761665942E+02 -4.1085831935E+02  4.3099512448E+02  3.3000000000E-01 0. 9.
      -2    1   12    0    0  104  5.3209031023E+01 -1.6522627878E+02 -4.5518788225E+02  4.8716223297E+02  3.3000000000E-01 0. 9.
</event>
<event>
    12   230  1.000000E+00  3.002728E+02  7.868532E-03  1.073427E-01
       2   -1    0    0  101    0  0.0000000000E+00  0.0000000000E+00  9.8768259381E+02  9.8768259381E+02  0.0000000000E+00 0. 9.
      -1   -1    0    0    0  101  0.0000000000E+00  0.0000000000E+00 -9.1312852064E+01  9.1312852064E+01  0.0000000000E+00 0. 9.
 1000024    2    1    2    0    0 -1.0998153171E+02 -7.5671142034E+01  4.3940827716E+02  5.3224216006E+02  2.6903535800E+02 0. 9.
 1000023    2    1    2    0    0  1.0998153171E+02  7.5671142034E+01  4.5696146459E+02  5.4675328582E+02  2.6889276000E+02 0. 9.
 1000022    1    3    0    0    0 -1.6255183856E+01 -4.7690588219E+01  1.0234484973E+02  1.7217484721E+02  1.2896157000E+02 0. 9.
      24    2    3    0    0    0 -9.3726347851E+01 -2.7980553815E+01  3.3706342742E+02  3.6006731285E+02  8.0431188000E+01 0. 9.
 1000022    1    4    0    0    0  6.3867533006E+01  4.3337995848E+01  1.6363036337E+02  2.2217836530E+02  1.2896157000E+02 0. 9.
      25    2    4    0    0    0  4.6113998702E+01  3.2333146186E+01  2.9333110122E+02  3.2457492052E+02  1.2701893900E+02 0. 9.
     -11    1    6    0    0    0 -2.6342761154E+01  2.7281742564E+01  1.2983973672E+02  1.3526489483E+02  5.1000000000E-04 0. 9.
      12    1    6    0    0    0 -6.7383586697E+01 -5.5262296379E+01  2.0722369070E+02  2.2480241802E+02  0.0000000000E+00 0. 9.
       5    1    8    0  102    0 -4.4458490858E+00  6.1959870961E+01  7.0354745650E+01  9.3976706790E+01  4.8000000000E+00 0. 9.
      -5    1    8    0    0  102  5.0559847788E+01 -2.9626724774E+01  2.2297635557E+02  2.3059821373E+02  4.8000000000E+00 0. 9.
</event>
<event>
    12   226  1.000000E+00  2.835626E+02  7.863432E-03  1.081538E-01
      -1   -1    0    0    0  101  0.0000000000E+00  0.0000000000E+00  1.4232885058E+02  1.4232885058E+02  0.0000000000E+00 0. 9.
       1   -1    0    0  101    0  0.0000000000E+00  0.0000000000E+00 -5.8989788032E+02  5.8989788032E+02  0.0000000000E+00 0. 9.
 1000024    2    1    2    0    0  5.2987823598E+01 -7.2249739305E+01 -2.9908549227E+02  4.1214061899E+02  2.6903535800E+02 0. 9.
-1000024    2    1    2    0    0 -5.2987823598E+01  7.2249739305E+01 -1.4848353747E+02  3.2008611190E+02  2.6903535800E+02 0. 9.
 1000022    1    3    0    0    0 -2.4814386119E+01 -9.3085095738E-02 -2.2296737588E+02  2.5876881509E+02  1.2896157000E+02 0. 9.
      24    2    3    0    0    0  7.7802209717E+01 -7.2156654209E+01 -7.6118116399E+01  1.5337180390E+02  8.0431188000E+01 0. 9.
 1000022    1    4    0    0    0 -5.9023939146E+00  1.1543991371E+02 -1.2797777909E+02  2.1533836260E+02  1.2896157000E+02 0. 9.
     -24    2    4    0    0    0 -4.7085429684E+01 -4.3190174405E+01 -2.0505758383E+01  1.0474774930E+02  8.0431188000E+01 0. 9.
      -3    1    6    0    0  102  5.0442876946E+01 -7.5699256316E+01 -8.4849221986E+01  1.2439655025E+02  5.0000000000E-01 0. 9.
       4    1    6    0  102    0  2.7359332771E+01  3.5426021071E+00  8.7311055876E+00  2.8975253651E+01  1.5000000000E+00 0. 9.
       1    1    8    0  103    0 -5.8736587863E+01 -5.1423728629E+01  1.9607723533E+00  7.8091869923E+01  3.3000000000E-01 0. 9.
      -4    1    8    0    0  103  1.1651158179E+01  8.2335542239E+00 -2.2466530736E+01  2.6655879378E+01  1.5000000000E+00 0. 9.
</event>
<event>
    20   258  1.000000E+00  1.173258E+03  7.991913E-03  9.108392E-02
      21   -1    0    0  101  102  0.0000000000E+00  0.0000000000E+00  5.8526596491E+02  5.8526596491E+02  0.0000000000E+00 0. 9.
       2   -1    0    0  102    0  0.0000000000E+00  0.0000000000E+00 -2.3513856695E+03  2.3513856695E+03  0.0000000000E+00 0. 9.
 1000021    2    1    2  101  103 -6.9739982848E+02  1.5646666367E+02 -7.8727397241E+02  1.3707422853E+03  8.6503512500E+02 0. 9.
 1000002    2    1    2  103    0  6.9739982848E+02 -1.5646666367E+02 -9.7884573214E+02  1.5659093491E+03  9.9150632100E+02 0. 9.
-1000024    2    3    0    0    0 -2.5994262856E+02  1.6353949408E+02 -6.4085996430E+02  7.5986633954E+02  2.6903535800E+02 0. 9.
       4    1    3    0  101    0 -5.3128659733E+01  6.4700847045E+01 -1.9945815083E+02  2.1632072954E+02  1.5000000000E+00 0. 9.
      -3    1    3    0    0  103 -3.8432854018E+02 -7.1773677452E+01  5.3044142726E+01  3.9455521623E+02  5.0000000000E-01 0. 9.
 1000021    2    4    0  103  104  7.3660545637E+02 -1.1151441302E+02 -9.8243993690E+02  1.5061530665E+03  8.6503512500E+02 0. 9.
       2    1    4    0  104    0 -3.9205627895E+01 -4.4952250653E+01  3.5942047604E+00  5.9756282559E+01  3.3000000000E-01 0. 9.
 1000022    1    5    0    0    0 -1.7764953746E+02  7.6329678259E+01 -5.2705094380E+02  5.7602027902E+02  1.2896157000E+02 0. 9.
     -24    2    5    0    0    0 -8.2293091099E+01  8.7209815820E+01 -1.1380902050E+02  1.8384606052E+02  8.0431188000E+01 0. 9.
 1000023    2    8    0    0    0  1.8510609493E+02 -2.8281404990E+02 -5.4669827861E+02  6.9672833832E+02  2.6889276000E+02 0. 9.
       3    1    8    0  103    0  7.4862833747E+01  1.9074258058E+02 -1.3963795671E+02  2.4796407981E+02  5.0000000000E-01 0. 9.
      -3    1    8    0    0  104  4.7663652770E+02 -1.9442943704E+01 -2.9610370158E+02  5.6146064838E+02  5.0000000000E-01 0. 9.
       3    1   11    0  105    0 -1.3361881487E-01  4.5858378587E+01 -6.5449724497E+01  7.9918240580E+01  5.0000000000E-01 0. 9.
      -4    1   11    0    0  105 -8.2159472285E+01  4.1351437233E+01 -4.8359296000E+01  1.0392781994E+02  1.5000000000E+00 0. 9.
 1000022    1   12    0    0    0  5.9982486702E+01 -1.2767581982E+02 -2.9460681830E+02  3.5117414142E+02  1.2896157000E+02 0. 9.
      25    2   12    0    0    0  1.2512360823E+02 -1.5513823007E+02 -2.5209146032E+02  3.4555419690E+02  1.2701893900E+02 0. 9.
       5    1   18    0  106    0  6.5220127059E+01 -3.5788144753E+01 -1.7749873544E+02  1.9251830397E+02  4.8000000000E+00 0. 9.
      -5    1   18    0    0  106  5.9903481167E+01 -1.1935008532E+02 -7.4592724875E+01  1.5303589293E+02  4.8000000000E+00 0. 9.
</event>
<event>
    18   244  1.000000E+00  9.247586E+02  7.970088E-03  9.355873E-02
      21   -1    0    0  101  102  0.0000000000E+00  0.0000000000E+00  7.1595108320E+02  7.1595108320E+02  0.0000000000E+00 0. 9.
      21   -1    0    0  103  101  0.0000000000E+00  0.0000000000E+00 -1.2369346203E+03  1.2369346203E+03  0.0000000000E+00 0. 9.
 1000021    2    1    2  103  104 -7.8951788176E+01 -3.1726847268E+02 -4.4142285006E+02  1.0247109683E+03  8.6503512500E+02 0. 9.
 1000021    2    1    2  104  102  7.8951788176E+01  3.1726847268E+02 -7.9560687075E+01  9.2817473518E+02  8.6503512500E+02 0. 9.
 1000023    2    3    0    0    0  1.5921308002E+02 -2.0078549740E+02 -1.6684675147E+02  4.0719132564E+02  2.6889276000E+02 0. 9.
       5    1    3    0  103    0 -4.8134688370E+01 -1.8395110801E+02 -3.5309579394E+02  4.0106687480E+02  4.8000000000E+00 0. 9.
      -5    1    3    0    0  104 -1.9003017982E+02  6.7468132732E+01  7.8519695356E+01  2.1645276791E+02  4.8000000000E+00 0. 9.
-1000024    2    4    0    0    0 -2.5367634369E+02  1.1519681558E+02  1.2721031197E+02  4.0765730828E+02  2.6903535800E+02 0. 9.
       2    1    4    0  104    0  1.4004463644E+02 -5.9182653754E+01 -8.2475042021E+01  1.7296626306E+02  3.3000000000E-01 0. 9.
      -1    1    4    0    0  102  1.9258349543E+02  2.6125431085E+02 -1.2429595703E+02  3.4755116384E+02  3.3000000000E-01 0. 9.
 1000022    1    5    0    0    0  1.7713056528E+01 -1.1698675016E+02 -1.2354290547E+02  2.1422788827E+02  1.2896157000E+02 0. 9.
      23    2    5    0    0    0  1.4150002349E+02 -8.3798747245E+01 -4.3303846001E+01  1.9296343736E+02  9.1187600000E+01 0. 9.
 1000022    1    8    0    0    0 -2.1597636907E+02  1.9780159832E+01  1.1316043087E+02  2.7653827289E+02  1.2896157000E+02 0. 9.
     -24    2    8    0    0    0 -3.7699974629E+01  9.5416655752E+01  1.4049881098E+01  1.3111903540E+02  8.0431188000E+01 0. 9.
       4    1   12    0  105    0  1.2679478380E+02 -5.0075575120E+01 -2.7815830168E-01  1.3633344342E+02  1.5000000000E+00 0. 9.
      -4    1   12    0    0  105  1.4705239692E+01 -3.3723172125E+01 -4.3025687699E+01  5.6629993948E+01  1.5000000000E+00 0. 9.
      15    1   14    0    0    0 -4.0490941110E+01  7.1085711694E+01 -2.4526875836E+01  8.5424938316E+01  1.7770000000E+00 0. 9.
     -16    1   14    0    0    0  2.7909664814E+00  2.4330944058E+01  3.8576756934E+01  4.5694097082E+01  0.0000000000E+00 0. 9.
</event>
<event>
     9   259  1.000000E+00  9.570278E+02  7.973225E-03  9.319382E-02
       2   -1    0    0  101    0  0.0000000000E+00  0.0000000000E+00  1.0064911708E+03  1.0064911708E+03  0.0000000000E+00 0. 9.
      21   -1    0    0  102  101  0.0000000000E+00  0.0000000000E+00 -9.0749406017E+02  9.0749406017E+02  0.0000000000E+00 0. 9.
 2000002    2    1    2  103    0 -2.2021911896E+02 -4.3884335727E+01  8.7960775757E+01  1.0202124056E+03  9.9129912700E+02 0. 9.
 1000021    2    1    2  102  103  2.2021911896E+02  4.3884335727E+01  1.1036334913E+01  8.9377282542E+02  8.6503512500E+02 0. 9.
 1000022    1    3    0    0    0  2.7028339989E+02 -2.5855993817E+02 -1.6421709765E+02  4.2837448521E+02  1.2896157000E+02 0. 9.
       2    1    3    0  103    0 -4.9050251885E+02  2.1467560244E+02  2.5217787341E+02  5.9183792039E+02  3.3000000000E-01 0. 9.
 1000022    1    4    0    0    0 -1.5151805414E+02  1.4493806134E+02  1.9519241196E+01  2.4693490979E+02  1.2896157000E+02 0. 9.
       5    1    4    0  102    0  1.0137290996E+02 -1.8683117098E+02 -2.1001760901E+02  2.9885245426E+02  4.8000000000E+00 0. 9.
      -5    1    4    0    0  103  2.7036426314E+02  8.5777445361E+01  2.0153470273E+02  3.4798546137E+02  4.8000000000E+00 0. 9.
</event>
<event>
    17   258  1.000000E+00  9.418759E+02  7.971765E-03  9.336325E-02
       2   -1    0    0  101    0  0.0000000000E+00  0.0000000000E+00  2.2447374148E+03  2.2447374148E+03  0.0000000000E+00 0. 9.
      21   -1    0    0  102  101  0.0000000000E+00  0.0000000000E+00 -6.3791652195E+02  6.3791652195E+02  0.0000000000E+00 0. 9.
 1000002    2    1    2  103    0  1.3136383949E+01 -1.4585037546E+02  1.7273557748E+03  1.9970697669E+03  9.9150632100E+02 0. 9.
 1000021    2    1    2  102  103 -1.3136383949E+01  1.4585037546E+02 -1.2053488195E+02  8.8558416983E+02  8.6503512500E+02 0. 9.
 1000024    2    3    0    0    0 -2.9401133741E+02 -3.2994422295E+02  5.0364765774E+02  7.2204351932E+02  2.6903535800E+02 0. 9.
       1    1    3    0  103    0  3.0714772136E+02  1.8409384749E+02  1.2237081170E+03  1.2750262476E+03  3.3000000000E-01 0. 9.
 1000023    2    4    0    0    0  1.3577337978E+02  3.9570867836E+01 -2.4080954690E+01  3.0476790021E+02  2.6889276000E+02 0. 9.
       5    1    4    0  102    0 -3.0388838386E+01  3.1521564692E+02  1.2602903532E+01  3.1696412847E+02  4.8000000000E+00 0. 9.
      -5    1    4    0    0  103 -1.1852092535E+02 -2.0893613929E+02 -1.0905683079E+02  2.6385214115E+02  4.8000000000E+00 0. 9.
 1000022    1    5    0    0    0 -2.3260913132E+02 -1.4087548859E+02  3.2479087588E+02  4.4280143501E+02  1.2896157000E+02 0. 9.
      24    2    5    0    0    0 -6.1402206092E+01 -1.8906873436E+02  1.7885678186E+02  2.7924208430E+02  8.0431188000E+01 0. 9.
 1000022    1    7    0    0    0  3.0011059714E+01  2.7602468290E+01  9.8458795763E+00  1.3561190155E+02  1.2896157000E+02 0. 9.
      25    2    7    0    0    0  1.0576232007E+02  1.1968399545E+01 -3.3926834266E+01  1.6915599866E+02  1.2701893900E+02 0. 9.
      -1    1   11    0    0  104 -3.2920384500E+01 -4.6242459823E+01  1.2467739277E+01  5.8117727319E+01  3.3000000000E-01 0. 9.
       2    1   11    0  104    0 -2.8481821591E+01 -1.4282627454E+02  1.6638904259E+02  2.2112435699E+02  3.3000000000E-01 0. 9.
       5    1   13    0  105    0 -1.5575054618E+01  3.5175586261E+01 -2.2921638205E+01  4.5037159026E+01  4.8000000000E+00 0. 9.
      -5    1   13    0    0  105  1.2133737469E+02 -2.3207186716E+01 -1.1005196061E+01  1.2411883963E+02  4.8000000000E+00 0. 9.
</event>
<event>
    17   258  1.000000E+00  1.550624E+03  8.017638E-03  8.834575E-02
      21   -1    0    0  101  102  0.0000000000E+00  0.0000000000E+00  1.2072562550E+03  1.2072562550E+03  0.0000000000E+00 0. 9.
       2   -1    0    0  102    0  0.0000000000E+00  0.0000000000E+00 -2.0269401265E+03  2.0269401265E+03  0.0000000000E+00 0. 9.
 1000021    2    1    2  101  103 -6.1249360318E+02  1.0787030131E+03 -1.8314350749E+02  1.5233436632E+03  8.6503512500E+02 0. 9.
 1000002    2    1    2  103    0  6.1249360318E+02 -1.0787030131E+03 -6.3654036398E+02  1.7108527184E+03  9.9150632100E+02 0. 9.
 1000024    2    3    0    0    0 -1.1607123927E+02  1.0118772418E+02 -1.2366223241E+01  3.1023287292E+02  2.6903535800E+02 0. 9.
      -4    1    3    0    0  103 -1.0190790363E+02  3.6621414296E+02  1.6181903344E+02  4.1314122151E+02  1.5000000000E+00 0. 9.
       3    1    3    0  101    0 -3.9451446028E+02  6.1130114594E+02 -3.3259631769E+02  7.9996956876E+02  5.0000000000E-01 0. 9.
 1000023    2    4    0    0    0  2.7257959859E+02 -2.7082647482E+02 -6.8825639038E+02  8.3285460454E+02  2.6889276000E+02 0. 9.
       2    1    4    0  103    0  3.3991400458E+02 -8.0787653827E+02  5.1716026391E+01  8.7799811383E+02  3.3000000000E-01 0. 9.
 1000022    1    5    0    0    0  1.2944355716E+01  8.7919964902E+01  4.5841589012E+00  1.5668304829E+02  1.2896157000E+02 0. 9.
      24    2    5    0    0    0 -1.2901559498E+02  1.3267759281E+01 -1.6950382143E+01  1.5354982463E+02  8.0431188000E+01 0. 9.
 1000022    1    8    0    0    0  9.0249937340E+01 -8.6471662936E+01 -2.8574226216E+02  3.3749389121E+02  1.2896157000E+02 0. 9.
      25    2    8    0    0    0  1.8232966125E+02 -1.8435481189E+02 -4.0251412822E+02  4.9536071334E+02  1.2701893900E+02 0. 9.
     -15    1   11    0    0    0 -5.3006408016E+01  4.3370623357E+01 -2.1112160616E+01  7.1690803567E+01  1.7770000000E+00 0. 9.
      16    1   11    0    0    0 -7.6009186968E+01 -3.0102864076E+01  4.1617784736E+00  8.1859021061E+01  0.0000000000E+00 0. 9.
       5    1   13    0  104    0  9.3251091871E+01 -1.0857721125E+02 -1.1087792754E+02  1.8111248370E+02  4.8000000000E+00 0. 9.
      -5    1   13    0    0  104  8.9078569381E+01 -7.5777600637E+01 -2.9163620068E+02  3.1424822963E+02  4.8000000000E+00 0. 9.
</event>
<event>
    24   258  1.000000E+00  1.000365E+03  7.977281E-03  9.272683E-02
       2   -1    0    0  101    0  0.0000000000E+00  0.0000000000E+00  1.1833871331E+03  1.1833871331E+03  0.0000000000E+00 0. 9.
      21   -1    0    0  102  101  0.0000000000E+00  0.0000000000E+00 -8.5803730155E+02  8.5803730155E+02  0.0000000000E+00 0. 9.
 1000002    2    1    2  103    0 -2.9789146175E+02  2.1518937130E+02  3.5979334755E+01  1.0580288680E+03  9.9150632100E+02 0. 9.
 1000021    2    1    2  102  103  2.9789146175E+02 -2.1518937130E+02  2.8937049679E+02  9.8339556660E+02  8.6503512500E+02 0. 9.
 1000021    2    3    0  103  104 -2.5763414392E+02  3.0052965606E+02  7.8487990098E+01  9.5453630542E+02  8.6503512500E+02 0. 9.
       2    1    3    0  104    0 -4.0257317825E+01 -8.5340284754E+01 -4.2508655343E+01  1.0349256263E+02  3.3000000000E-01 0. 9.
-1000024    2    4    0    0    0 -2.8838555440E+01 -1.9232475695E+02  1.5092715268E+02  3.6466354861E+02  2.6903535800E+02 0. 9.
       6    2    4    0  102    0  3.2473643496E+01  1.5790191081E+02 -2.2528103753E+01  2.3768320601E+02  1.7320000000E+02 0. 9.
      -5    1    4    0    0  103  2.9425637369E+02 -1.8076652517E+02  1.6097144787E+02  3.8104881198E+02  4.8000000000E+00 0. 9.
-1000024    2    5    0    0    0  3.7758578268E+01  3.4166973995E+02 -7.8439048877E+01  4.4350493760E+02  2.6903535800E+02 0. 9.
       4    1    5    0  103    0 -4.1352129099E+01 -7.4482369687E+00 -1.2390790592E+02  1.3084683399E+02  1.5000000000E+00 0. 9.
      -3    1    5    0    0  104 -2.5404059309E+02 -3.3691846921E+01  2.8083494490E+02  3.8018453383E+02  5.0000000000E-01 0. 9.
 1000022    1    7    0    0    0 -1.7824950309E+01 -1.3189637828E+02  1.8103830072E+02  2.5907592772E+02  1.2896157000E+02 0. 9.
     -24    2    7    0    0    0 -1.1013605131E+01 -6.0428378671E+01 -3.0111148043E+01  1.0558762090E+02  8.0431188000E+01 0. 9.
      24    2    8    0    0    0 -2.3684655923E+01  2.1174061864E+01 -2.4142304647E+01  8.9784913537E+01  8.0431188000E+01 0. 9.
       5    1    8    0  102    0  5.6158299419E+01  1.3672784895E+02  1.6142008940E+00  1.4789829247E+02  4.8000000000E+00 0. 9.
 1000022    1   10    0    0    0  8.4824233512E+01  1.7441525771E+02 -9.4538982910E+01  2.5136534872E+02  1.2896157000E+02 0. 9.
     -24    2   10    0    0    0 -4.7065655244E+01  1.6725448224E+02  1.6099934033E+01  1.9213958887E+02  8.0431188000E+01 0. 9.
       1    1   14    0  105    0 -1.3283798153E+01  1.4870825621E+01  7.6000426731E+00  2.1341750085E+01  3.3000000000E-01 0. 9.
      -2    1   14    0    0  105  2.2701930227E+00 -7.5299204293E+01 -3.7711190716E+01  8.4245870811E+01  3.3000000000E-01 0. 9.
      -3    1   15    0    0  106 -1.5410170789E+01  5.1678935126E+01 -2.1410237748E+01  5.8024425718E+01  5.0000000000E-01 0. 9.
       4    1   15    0  106    0 -8.2744851342E+00 -3.0504873262E+01 -2.7320668990E+00  3.1760487819E+01  1.5000000000E+00 0. 9.
       1    1   18    0  107    0 -5.1416534840E+00  1.2350811694E+02 -1.4137286192E+01  1.2442131374E+02  3.3000000000E-01 0. 9.
      -2    1   18    0    0  107 -4.1924001760E+01  4.3746365300E+01  3.0237220225E+01  6.7718275136E+01  3.3000000000E-01 0. 9.
</event>
<event>
    12   226  1.000000E+00  2.794869E+02  7.862143E-03  1.083609E-01
      -2   -1    0    0    0  101  0.0000000000E+00  0.0000000000E+00  9.9735252796E+02  9.9735252796E+02  0.0000000000E+00 0. 9.
       2   -1    0    0  101    0  0.0000000000E+00  0.0000000000E+00 -9.2628347105E+01  9.2628347105E+01  0.0000000000E+00 0. 9.
-1000024    2    1    2    0    0 -3.0659385149E+01 -6.9230998599E+01  2.3816821485E+02  3.6720164962E+02  2.6903535800E+02 0. 9.
 1000024    2    1    2    0    0  3.0659385149E+01  6.9230998599E+01  6.6655596600E+02  7.2277922544E+02  2.6903535800E+02 0. 9.
 1000022    1    3    0    0    0  4.3978249907E+01  2.2382854287E+00  6.7469738670E+01  1.5206034513E+02  1.2896157000E+02 0. 9.
     -24    2    3    0    0    0 -7.4637635056E+01 -7.1469284028E+01  1.7069847618E+02  2.1514130450E+02  8.0431188000E+01 0. 9.
 1000022    1    4    0    0    0 -2.2507335698E+01  1.0931812229E+02  3.4798941868E+02  3.8753677770E+02  1.2896157000E+02 0. 9.
      24    2    4    0    0    0  5.3166720847E+01 -4.0087123691E+01  3.1856654733E+02  3.3524244775E+02  8.0431188000E+01 0. 9.
      11    1    6    0    0    0 -2.2359166017E+01 -6.3536136948E+01  1.3637326946E+02  1.5210010397E+02  5.1000000000E-04 0. 9.
     -12    1    6    0    0    0 -5.2278469038E+01 -7.9331470801E+00  3.4325206722E+01  6.3041200529E+01  0.0000000000E+00 0. 9.
      -3    1    8    0    0  102 -1.7126453767E+01 -1.2998509117E+01  2.9436178906E+01  3.6455661927E+01  5.0000000000E-01 0. 9.
       4    1    8    0  102    0  7.0293174614E+01 -2.7088614574E+01  2.8913036842E+02  2.9878678582E+02  1.5000000000E+00 0. 9.
</event>
<event>
    19   241  1.000000E+00  6.592565E+02  7.939259E-03  9.731851E-02
       2   -1    0    0  101    0  0.0000000000E+00  0.0000000000E+00  9.1275941242E+02  9.1275941242E+02  0.0000000000E+00 0. 9.
      -1   -1    0    0    0  102  0.0000000000E+00  0.0000000000E+00 -4.6572958655E+02  4.6572958655E+02  0.0000000000E+00 0. 9.
 1000024    2    1    2    0    0  1.5573554070E+02 -5.7107465424E+00 -1.1914872796E+02  3.3296037976E+02  2.6903535800E+02 0. 9.
 1000021    2    1    2  101  102 -1.5573554070E+02  5.7107465424E+00  5.6617855384E+02  1.0455286192E+03  8.6503512500E+02 0. 9.
 1000022    1    3    0    0    0  9.5394959317E+01 -8.6209482070E+01 -6.9417072421E+01  1.9488994213E+02  1.2896157000E+02 0. 9.
      24    2    3    0    0    0  6.0340581383E+01  8.0498735528E+01 -4.9731655542E+01  1.3807043764E+02  8.0431188000E+01 0. 9.
 1000024    2    4    0    0    0 -3.2521903258E+02 -1.4578395936E+02  2.7507178512E+02  5.2446629328E+02  2.6903535800E+02 0. 9.
      -6    2    4    0    0  102  2.0058594490E+02  5.1270955751E+01  7.4018990086E+01  2.7989369963E+02  1.7320000000E+02 0. 9.
       5    1    4    0  101    0 -3.1102453021E+01  1.0022375016E+02  2.1708777863E+02  2.4116862630E+02  4.8000000000E+00 0. 9.
      -1    1    6    0    0  103 -1.2887186527E+01 -6.9689103572E+00 -7.1703894986E+00  1.6314676636E+01  3.3000000000E-01 0. 9.
       2    1    6    0  103    0  7.3227767910E+01  8.7467645885E+01 -4.2561266044E+01  1.2175576100E+02  3.3000000000E-01 0. 9.
 1000022    1    7    0    0    0 -2.2211989920E+02 -1.2090925212E+02  2.6921013116E+02  3.9123072237E+02  1.2896157000E+02 0. 9.
      24    2    7    0    0    0 -1.0309913339E+02 -2.4874707243E+01  5.8616539563E+00  1.3323557091E+02  8.0431188000E+01 0. 9.
     -24    2    8    0    0    0  7.5891195321E+01  5.5355021936E+01  9.1482778722E+01  1.5382433743E+02  8.0431188000E+01 0. 9.
      -5    1    8    0    0  102  1.2469474958E+02 -4.0840661851E+00 -1.7463788636E+01  1.2606936219E+02  4.8000000000E+00 0. 9.
     -15    1   13    0    0    0 -4.4126389752E+01 -2.7039619360E+01 -3.4067247618E+01  6.1983984842E+01  1.7770000000E+00 0. 9.
      16    1   13    0    0    0 -5.8972743635E+01  2.1649121164E+00  3.9928901574E+01  7.1251586068E+01  0.0000000000E+00 0. 9.
       3    1   14    0  104    0  8.7112972855E+01  3.6858090060E+01  4.9947365135E+01  1.0696811734E+02  5.0000000000E-01 0. 9.
      -4    1   14    0    0  104 -1.1221777534E+01  1.8496931876E+01  4.1535413587E+01  4.6856220096E+01  1.5000000000E+00 0. 9.
</event>
<event>
    26   272  1.000000E+00  1.054555E+03  7.982117E-03  9.217664E-02
       2   -1    0    0  101    0  0.0000000000E+00  0.0000000000E+00  2.1291745762E+03  2.1291745762E+03  0.0000000000E+00 0. 9.
       1   -1    0    0  102    0  0.0000000000E+00  0.0000000000E+00 -6.1053394261E+02  6.1053394261E+02  0.0000000000E+00 0. 9.
 2000002    2    1    2  102    0 -3.0957186783E+02  1.8214082393E+02  2.3846938696E+02  1.0809956655E+03  9.9129912700E+02 0. 9.
 2000001    2    1    2  101    0  3.0957186783E+02 -1.8214082393E+02  1.2801712466E+03  1.6587128533E+03  9.9170554500E+02 0. 9.
 1000021    2    3    0  102  103 -3.5145706224E+02  1.2340871910E+02  2.9759312561E+02  9.8772426033E+02  8.6503512500E+02 0. 9.
       2    1    3    0  103    0  4.1885194409E+01  5.8732104825E+01 -5.9123738651E+01  9.3271405157E+01  3.3000000000E-01 0. 9.
 1000021    2    4    0  101  104  2.2401481083E+02 -2.6811704307E+02  1.1490997701E+03  1.4801302082E+03  8.6503512500E+02 0. 9.
       1    1    4    0  104    0  8.5557057000E+01  8.5976219142E+01  1.3107147656E+02  1.7858264509E+02  3.3000000000E-01 0. 9.
-1000024    2    5    0    0    0  8.5399137201E+01 -1.6629542364E+02  1.6386922005E+02  3.6630632767E+02  2.6903535800E+02 0. 9.
       6    2    5    0  102    0 -2.4651060986E+02  1.5495033893E+02  1.7995715142E+02  3.8361426544E+02  1.7320000000E+02 0. 9.
      -5    1    5    0    0  103 -1.9034558959E+02  1.3475380382E+02 -4.6233245856E+01  2.3780366721E+02  4.8000000000E+00 0. 9.
-1000024    2    7    0    0    0 -1.4966222770E+02  9.0753317251E+01  1.6002254023E+02  3.5863935120E+02  2.6903535800E+02 0. 9.
       2    1    7    0  101    0  2.0634517450E+02 -2.0453047770E+02  4.4195365315E+02  5.2889903363E+02  3.3000000000E-01 0. 9.
      -1    1    7    0    0  104  1.6733186403E+02 -1.5433988261E+02  5.4712357669E+02  5.9259182339E+02  3.3000000000E-01 0. 9.
 1000022    1    9    0    0    0  9.6614779806E+01 -7.9129661198E+01  1.6969653704E+02  2.4703020094E+02  1.2896157000E+02 0. 9.
     -24    2    9    0    0    0 -1.1215642605E+01 -8.7165762444E+01 -5.8273169878E+00  1.1927612673E+02  8.0431188000E+01 0. 9.
      24    2   10    0    0    0 -1.5149618650E+02  1.7044770741E+02  1.3870436367E+02  2.7876798954E+02  8.0431188000E+01 0. 9.
       5    1   10    0  102    0 -9.5014423353E+01 -1.5497368480E+01  4.1252787748E+01  1.0484627591E+02  4.8000000000E+00 0. 9.
 1000022    1   12    0    0    0  2.4095387054E+00  7.2369269665E+01  7.6865324037E+01  1.6668077767E+02  1.2896157000E+02 0. 9.
     -24    2   12    0    0    0 -1.5207176640E+02  1.8384047586E+01  8.3157216189E+01  1.9195857352E+02  8.0431188000E+01 0. 9.
       1    1   16    0  105    0 -2.0341792059E+01 -2.4616523296E+01 -3.6919972218E+01  4.8815519785E+01  3.3000000000E-01 0. 9.
      -4    1   16    0    0  105  9.1261494541E+00 -6.2549239148E+01  3.1092655230E+01  7.0460606945E+01  1.5000000000E+00 0. 9.
      -1    1   17    0    0  106 -1.3007663011E+02  1.1344031932E+02  6.8139895174E+01  1.8555805011E+02  3.3000000000E-01 0. 9.
       2    1   17    0  106    0 -2.1419556395E+01  5.7007388090E+01  7.0564468499E+01  9.3209939425E+01  3.3000000000E-01 0. 9.
      15    1   20    0    0    0 -6.8214067675E+01  4.4552662078E+01  2.0429372735E+01  8.4015568357E+01  1.7770000000E+00 0. 9.
     -16    1   20    0    0    0 -8.3857698727E+01 -2.6168614492E+01  6.2727843454E+01  1.0794300517E+02  0.0000000000E+00 0. 9.
</event>
<event>
    22   272  1.000000E+00  1.025420E+03  7.979548E-03  9.246803E-02
       2   -1    0    0  101    0  0.0000000000E+00  0.0000000000E+00  1.2504096341E+03  1.2504096341E+03  0.0000000000E+00 0. 9.
       2   -1    0    0  102    0  0.0000000000E+00  0.0000000000E+00 -1.4033339125E+03  1.4033339125E+03  0.0000000000E+00 0. 9.
 2000002    2    1    2  101    0 -1.0993079945E+02 -2.3817331704E+02 -9.1646219297E+02  1.3752775065E+03  9.9129912700E+02 0. 9.
 2000002    2    1    2  102    0  1.0993079945E+02  2.3817331704E+02  7.6353791458E+02  1.2784660401E+03  9.9129912700E+02 0. 9.
 1000021    2    3    0  101  103 -5.0672020114E+01 -1.2884564226E+02 -8.8863066361E+02  1.2478457745E+03  8.6503512500E+02 0. 9.
       2    1    3    0  103    0 -5.9258779335E+01 -1.0932767477E+02 -2.7831529361E+01  1.2743173202E+02  3.3000000000E-01 0. 9.
 1000021    2    4    0  102  104  5.2366964385E+01  1.5244864884E+02  5.4046301237E+02  1.0326514052E+03  8.6503512500E+02 0. 9.
       2    1    4    0  104    0  5.7563835064E+01  8.5724668193E+01  2.2307490221E+02  2.4581463492E+02  3.3000000000E-01 0. 9.
 1000023    2    5    0    0    0  2.0375655641E+02  1.4251846104E+02 -6.8693167778E+02  7.7846431668E+02  2.6889276000E+02 0. 9.
       3    1    5    0  101    0 -1.4240197315E+02 -2.6261130331E+02 -1.9513536935E+02  3.5682079670E+02  5.0000000000E-01 0. 9.
      -3    1    5    0    0  103 -1.1202660338E+02 -8.7527999839E+00 -6.5636164756E+00  1.1256066113E+02  5.0000000000E-01 0. 9.
 1000024    2    7    0    0    0  1.7294691388E+02 -2.1297287632E+02  1.5172821359E+02  4.1312172022E+02  2.6903535800E+02 0. 9.
      -2    1    7    0    0  104 -3.8836634387E+01  1.5579227052E+02 -1.0875945792E+01  1.6092827850E+02  3.3000000000E-01 0. 9.
       1    1    7    0  102    0 -8.1743315105E+01  2.0962925464E+02  3.9961074458E+02  4.5860140650E+02  3.3000000000E-01 0. 9.
 1000022    1    9    0    0    0  7.5157770851E+01  4.2420736630E+01 -3.5567749725E+02  3.8805383389E+02  1.2896157000E+02 0. 9.
      25    2    9    0    0    0  1.2859878556E+02  1.0009772441E+02 -3.3125418054E+02  3.9041048278E+02  1.2701893900E+02 0. 9.
 1000022    1   12    0    0    0  9.8348273379E+01 -2.2082684501E+02  1.1539752486E+02  2.9729539793E+02  1.2896157000E+02 0. 9.
      24    2   12    0    0    0  7.4598640499E+01  7.8539686875E+00  3.6330688728E+01  1.1582632229E+02  8.0431188000E+01 0. 9.
       5    1   16    0  105    0  9.1540713650E+01  4.2819751586E+01 -2.9732430224E+02  3.1406689428E+02  4.8000000000E+00 0. 9.
      -5    1   16    0    0  105  3.7058071911E+01  5.7277972820E+01 -3.3929878299E+01  7.6343588503E+01  4.8000000000E+00 0. 9.
      -3    1   18    0    0  106  9.1178253954E+01  1.1230719711E+01  3.6625995922E+01  9.8900539112E+01  5.0000000000E-01 0. 9.
       2    1   18    0  106    0 -1.6579613455E+01 -3.3767510236E+00 -2.9530719497E-01  1.6925783177E+01  3.3000000000E-01 0. 9.
</event>
<event>
    12   226  1.000000E+00  2.739729E+02  7.860370E-03  1.086471E-01
       3   -1    0    0  101    0  0.0000000000E+00  0.0000000000E+00  6.0305565736E+02  6.0305565736E+02  0.0000000000E+00 0. 9.
      -3   -1    0    0    0  101  0.0000000000E+00  0.0000000000E+00 -1.8163328547E+02  1.8163328547E+02  0.0000000000E+00 0. 9.
-1000024    2    1    2    0    0  5.1753180537E+01 -1.6453356793E+00  4.3081930480E+02  5.1055498829E+02  2.6903535800E+02 0. 9.
 1000024    2    1    2    0    0 -5.1753180537E+01  1.6453356793E+00 -9.3969329198E+00  2.7413395453E+02  2.6903535800E+02 0. 9.
 1000022    1    3    0    0    0  1.5699392134E+01 -8.2785612224E+01  2.4984828151E+02  2.9352202441E+02  1.2896157000E+02 0. 9.
     -24    2    3    0    0    0  3.6053788403E+01  8.1140276544E+01  1.8097102329E+02  2.1703296388E+02  8.0431188000E+01 0. 9.
 1000022    1    4    0    0    0  4.9892812835E+01  1.4816493456E+01 -2.9894812021E+01  1.4224488593E+02  1.2896157000E+02 0. 9.
      24    2    4    0    0    0 -1.0164599337E+02 -1.3171157777E+01  2.0497879101E+01  1.3188906860E+02  8.0431188000E+01 0. 9.
      15    1    6    0    0    0  9.5874236781E-01  7.0454581711E+01  1.5985483711E+02  1.7470401812E+02  1.7770000000E+00 0. 9.
     -16    1    6    0    0    0  3.5095046035E+01  1.0685694833E+01  2.1116186185E+01  4.2328945761E+01  0.0000000000E+00 0. 9.
      -1    1    8    0    0  102 -5.7170913041E+01 -1.8728543023E+01  5.0002141050E+01  7.8227837956E+01  3.3000000000E-01 0. 9.
       2    1    8    0  102    0 -4.4475080331E+01  5.5573852459E+00 -2.9504261949E+01  5.3661230645E+01  3.3000000000E-01 0. 9.
</event>
<event>
    26   244  1.000000E+00  9.859233E+02  7.975949E-03  9.287965E-02
      21   -1    0    0  101  102  0.0000000000E+00  0.0000000000E+00  9.4120393819E+02  9.4120393819E+02  0.0000000000E+00 0. 9.
      21   -1    0    0  102  103  0.0000000000E+00  0.0000000000E+00 -1.5537618627E+03  1.5537618627E+03  0.0000000000E+00 0. 9.
 1000021    2    1    2  104  103  3.2276298675E+02  3.4580784976E+02 -1.0286476452E+03  1.4248370994E+03  8.6503512500E+02 0. 9.
 1000021    2    1    2  101  104 -3.2276298675E+02 -3.4580784976E+02  4.1608972065E+02  1.0701287015E+03  8.6503512500E+02 0. 9.
 1000024    2    3    0    0    0  1.9103726015E+02  1.7411803794E+02 -7.6917532060E+02  8.5488187697E+02  2.6903535800E+02 0. 9.
      -6    2    3    0    0  103  2.7185451982E+02  1.3411015092E+02 -2.3961626265E+02  4.2344374580E+02  1.7320000000E+02 0. 9.
       5    1    3    0  104    0 -1.4012879322E+02  3.7579660900E+01 -1.9856061920E+01  1.4651147668E+02  4.8000000000E+00 0. 9.
-1000024    2    4    0    0    0  1.5770510975E+00 -3.9550905078E+02  4.5020246595E+02  6.5688064406E+02  2.6903535800E+02 0. 9.
       6    2    4    0  101    0 -2.2321337651E+02 -2.4770986536E+01 -2.3788271900E+00  2.8362248156E+02  1.7320000000E+02 0. 9.
      -5    1    4    0    0  104 -1.0112666133E+02  7.4472187555E+01 -3.1733918115E+01  1.2962557583E+02  4.8000000000E+00 0. 9.
 1000022    1    5    0    0    0  1.3922563355E+02  1.9723886722E+02 -5.9165239133E+02  6.5189768099E+02  1.2896157000E+02 0. 9.
      24    2    5    0    0    0  5.1811626597E+01 -2.3120829285E+01 -1.7752292927E+02  2.0298419598E+02  8.0431188000E+01 0. 9.
     -24    2    6    0    0    0  2.8193957713E+02  9.4640945948E+01 -2.1298224099E+02  3.7453630636E+02  8.0431188000E+01 0. 9.
      -5    1    6    0    0  103 -1.0085057309E+01  3.9469204977E+01 -2.6634021656E+01  4.8907439434E+01  4.8000000000E+00 0. 9.
 1000022    1    8    0    0    0  3.1099475520E+01 -3.5866069064E+02  3.3281867595E+02  5.0695564499E+02  1.2896157000E+02 0. 9.
     -24    2    8    0    0    0 -2.9522424423E+01 -3.6848360140E+01  1.1738379000E+02  1.4992499907E+02  8.0431188000E+01 0. 9.
      24    2    9    0    0    0 -8.7065288081E+01 -2.0087224049E+01  5.9246130475E+01  1.3402664264E+02  8.0431188000E+01 0. 9.
       5    1    9    0  101    0 -1.3614808843E+02 -4.6837624865E+00 -6.1624957665E+01  1.4959583892E+02  4.8000000000E+00 0. 9.
     -15    1   12    0    0    0  1.3151395557E+01 -3.2737029279E+01 -1.5111334661E+02  1.5518722094E+02  1.7770000000E+00 0. 9.
      16    1   12    0    0    0  3.8660231040E+01  9.6161999945E+00 -2.6409582661E+01  4.7796975037E+01  0.0000000000E+00 0. 9.
       1    1   13    0  105    0  2.5337143849E+01  3.0522858329E+01 -9.4037205280E+00  4.0769530274E+01  3.3000000000E-01 0. 9.
      -2    1   13    0    0  105  2.5660243328E+02  6.4118087618E+01 -2.0357852046E+02  3.3376677609E+02  3.3000000000E-01 0. 9.
       1    1   16    0  106    0 -4.9952585859E+01 -1.5351001386E+01  3.6414985280E+01  6.3695165676E+01  3.3000000000E-01 0. 9.
      -2    1   16    0    0  106  2.0430161436E+01 -2.1497358755E+01  8.0968804718E+01  8.6229833395E+01  3.3000000000E-01 0. 9.
     -11    1   17    0    0    0 -7.9288098621E+01 -4.4685615970E+01  3.1925320782E+01  9.6450157931E+01  5.1000000000E-04 0. 9.
      12    1   17    0    0    0 -7.7771894601E+00  2.4598391921E+01  2.7320809693E+01  3.7576484712E+01  0.0000000000E+00 0. 9.
</event>
<event>
    12   226  1.000000E+00  2.958814E+02  7.867219E-03  1.075503E-01
       2   -1    0    0  101    0  0.0000000000E+00  0.0000000000E+00  6.0875731616E+02  6.0875731616E+02  0.0000000000E+00 0. 9.
      -2   -1    0    0    0  101  0.0000000000E+00  0.0000000000E+00 -1.4398791408E+02  1.4398791408E+02  0.0000000000E+00 0. 9.
 1000024    2    1    2    0    0  1.9022782213E+01  1.2167131472E+02  2.4558968921E+02  3.8452580456E+02  2.6903535800E+02 0. 9.
-1000024    2    1    2    0    0 -1.9022782213E+01 -1.2167131472E+02  2.1917971286E+02  3.6821942569E+02  2.6903535800E+02 0. 9.
 1000022    1    3    0    0    0 -3.0524473837E+01 -9.0393880215E+00  1.3198887070E+02  1.8725811749E+02  1.2896157000E+02 0. 9.
      24    2    3    0    0    0  4.9547256050E+01  1.3071070274E+02  1.1360081851E+02  1.9726768707E+02  8.0431188000E+01 0. 9.
 1000022    1    4    0    0    0  4.3480713775E+00 -6.4325507706E+01  2.1194841207E+01  1.4572914773E+02  1.2896157000E+02 0. 9.
     -24    2    4    0    0    0 -2.3370853591E+01 -5.7345807009E+01  1.9798487166E+02  2.2249027796E+02  8.0431188000E+01 0. 9.
      -3    1    6    0    0  102  5.4015209239E+01  9.0557967952E+01  3.9018268046E+01  1.1243248476E+02  5.0000000000E-01 0. 9.
       4    1    6    0  102    0 -4.4679531894E+00  4.0152734784E+01  7.4582550463E+01  8.4835202304E+01  1.5000000000E+00 0. 9.
       1    1    8    0  103    0 -3.0709656479E+01 -6.3444407586E+01  9.1125508619E+01  1.1520522157E+02  3.3000000000E-01 0. 9.
      -2    1    8    0    0  103  7.3388028878E+00  6.0986005774E+00  1.0685936304E+02  1.0728505639E+02  3.3000000000E-01 0. 9.
</event>
<event>
    24   259  1.000000E+00  9.833354E+02  7.975708E-03  9.290732E-02
      21   -1    0    0  101  102  0.0000000000E+00  0.0000000000E+00  8.1301216517E+02  8.1301216517E+02  0.0000000000E+00 0. 9.
       2   -1    0    0  102    0  0.0000000000E+00  0.0000000000E+00 -1.5435391296E+03  1.5435391296E+03  0.0000000000E+00 0. 9.
 1000021    2    1    2  101  103  2.2361178297E+02 -2.2686216073E+02  2.1889889497E+02  9.4745509823E+02  8.6503512500E+02 0. 9.
 2000002    2    1    2  103    0 -2.2361178297E+02  2.2686216073E+02 -9.4942585943E+02  1.4090961966E+03  9.9129912700E+02 0. 9.
-1000024    2    3    0    0    0 -1.1906682865E+02  6.7125646505E+01  1.7159687148E+02  3.4714301413E+02  2.6903535800E+02 0. 9.
       4    1    3    0  101    0  3.7949967655E+02 -9.9784989383E+01 -1.6092035624E+01  3.9273178153E+02  1.5000000000E+00 0. 9.
      -3    1    3    0    0  103 -3.6821064933E+01 -1.9420281785E+02  6.3394059114E+01  2.0758030257E+02  5.0000000000E-01 0. 9.
 1000021    2    4    0  103  104 -1.1792241212E+02  1.0408392727E+02 -8.0110203936E+02  1.1894492020E+03  8.6503512500E+02 0. 9.
       2    1    4    0  104    0 -1.0568937085E+02  1.2277823346E+02 -1.4832382007E+02  2.1964699457E+02  3.3000000000E-01 0. 9.
 1000022    1    5    0    0    0 -1.3525104785E+02 -8.6442059820E+00  1.3069326707E+02  2.2820908140E+02  1.2896157000E+02 0. 9.
     -24    2    5    0    0    0  1.6184219198E+01  7.5769852487E+01  4.0903604411E+01  1.1893393273E+02  8.0431188000E+01 0. 9.
 1000024    2    8    0    0    0 -3.3792498786E+02 -1.6094962239E+02 -4.7987709751E+02  6.6540223244E+02  2.6903535800E+02 0. 9.
      -6    2    8    0    0  104  1.1423366022E+02  1.4309125251E+02 -1.8284738992E+02  3.1137733327E+02  1.7320000000E+02 0. 9.
       5    1    8    0  103    0  1.0576891552E+02  1.2194229715E+02 -1.3837755194E+02  2.1266963630E+02  4.8000000000E+00 0. 9.
       3    1   11    0  105    0 -3.2515777618E+01  3.8030901596E+01  1.9154902762E+01  5.3579712300E+01  5.0000000000E-01 0. 9.
      -4    1   11    0    0  105  4.8699996816E+01  3.7738950891E+01  2.1748701649E+01  6.5354220427E+01  1.5000000000E+00 0. 9.
 1000022    1   12    0    0    0 -2.3442056645E+02 -1.9739090351E+01 -2.7842268469E+02  3.8664313204E+02  1.2896157000E+02 0. 9.
      24    2   12    0    0    0 -1.0350442141E+02 -1.4121053204E+02 -2.0145441281E+02  2.7875910040E+02  8.0431188000E+01 0. 9.
     -24    2   13    0    0    0  1.2079252790E+02  1.6329064580E+02 -1.2998029691E+02  2.5420213097E+02  8.0431188000E+01 0. 9.
      -5    1   13    0    0  104 -6.5588676837E+00 -2.0199393287E+01 -5.2867093007E+01  5.7175202295E+01  4.8000000000E+00 0. 9.
      -1    1   18    0    0  106 -4.6489599060E+01 -2.3792874356E+01 -1.0223232794E+02  1.1479957085E+02  3.3000000000E-01 0. 9.
       2    1   18    0  106    0 -5.7014822345E+01 -1.1741765769E+02 -9.9222084870E+01  1.6395952955E+02  3.3000000000E-01 0. 9.
       3    1   19    0  107    0  3.6590291268E+01  1.0958673157E+02 -9.0661293423E+01  1.4685986952E+02  5.0000000000E-01 0. 9.
      -4    1   19    0    0  107  8.4202236636E+01  5.3703914233E+01 -3.9319003488E+01  1.0734226145E+02  1.5000000000E+00 0. 9.
</event>
<event>
    12   230  1.000000E+00  3.337064E+02  7.877953E-03  1.058787E-01
       2   -1    0    0  101    0  0.0000000000E+00  0.0000000000E+00  5.6242151766E+02  5.6242151766E+02  0.0000000000E+00 0. 9.
      -1   -1    0    0    0  101  0.0000000000E+00  0.0000000000E+00 -2.0769129056E+02  2.0769129056E+02  0.0000000000E+00 0. 9.
 1000024    2    1    2    0    0  1.3187844905E+02  1.4705914314E+02  2.6056776752E+02  4.2343110683E+02  2.6903535800E+02 0. 9.
 1000023    2    1    2    0    0 -1.3187844905E+02 -1.4705914314E+02  9.4162459580E+01  3.4668170139E+02  2.6889276000E+02 0. 9.
 1000022    1    3    0    0    0  8.8273085889E+00  8.4963258033E+01  5.7194182787E+01  1.6492100434E+02  1.2896157000E+02 0. 9.
      24    2    3    0    0    0  1.2305114046E+02  6.2095885110E+01  2.0337358473E+02  2.5851010248E+02  8.0431188000E+01 0. 9.
 1000022    1    4    0    0    0 -5.3210398280E+01 -1.0680533198E+02  2.6048411769E+01  1.7761850049E+02  1.2896157000E+02 0. 9.
      25    2    4    0    0    0 -7.8668050767E+01 -4.0253811164E+01  6.8114047811E+01  1.6906320090E+02  1.2701893900E+02 0. 9.
      -1    1    6    0    0  102  9.0387086736E+01  1.9627579166E+01  1.7486269086E+02  1.9781844420E+02  3.3000000000E-01 0. 9.
       2    1    6    0  102    0  3.2664053722E+01  4.2468305944E+01  2.8510893875E+01  6.0691658280E+01  3.3000000000E-01 0. 9.
       5    1    8    0  103    0  8.2110257805E+00 -1.6523777807E+01 -3.0157486967E+01  3.5678707902E+01  4.8000000000E+00 0. 9.
      -5    1    8    0    0  103 -8.6879076547E+01 -2.3730033357E+01  9.8271534778E+01  1.3338449300E+02  4.8000000000E+00 0. 9.
</event>
<event>
    12   226  1.000000E+00  4.235180E+02  7.899305E-03  1.027160E-01
       1   -1    0    0  101    0  0.0000000000E+00  0.0000000000E+00  3.6461468839E+02  3.6461468839E+02  0.0000000000E+00 0. 9.
      -1   -1    0    0    0  101  0.0000000000E+00  0.0000000000E+00 -6.9783040090E+02  6.9783040090E+02  0.0000000000E+00 0. 9.
-1000024    2    1    2    0    0  2.6990343878E+02 -1.8476897781E+02  1.2194324874E+02  4.4072397393E+02  2.6903535800E+02 0. 9.
 1000024    2    1    2    0    0 -2.6990343878E+02  1.8476897781E+02 -4.5515896125E+02  6.2172111536E+02  2.6903535800E+02 0. 9.
 1000022    1    3    0    0    0  1.4305864340E+02 -1.1103851090E+01  7.0689483261E+01  2.0546814970E+02  1.2896157000E+02 0. 9.
     -24    2    3    0    0    0  1.2684479538E+02 -1.7366512672E+02  5.1253765477E+01  2.3525582423E+02  8.0431188000E+01 0. 9.
 1000022    1    4    0    0    0 -1.9872201782E+02  3.8750539661E+01 -2.2763733051E+02  3.3082001975E+02  1.2896157000E+02 0. 9.
      24    2    4    0    0    0 -7.1181420963E+01  1.4601843815E+02 -2.2752163074E+02  2.9090109561E+02  8.0431188000E+01 0. 9.
       3    1    6    0  102    0  5.7172405174E+01 -7.1714890090E+01 -1.8298319830E+01  9.3524263604E+01  5.0000000000E-01 0. 9.
      -4    1    6    0    0  102  6.9672390207E+01 -1.0195023663E+02  6.9552085307E+01  1.4173156062E+02  1.5000000000E+00 0. 9.
      -3    1    8    0    0  103 -2.7928946088E+00  6.7591142895E+01 -4.6476735152E+01  8.2077401083E+01  5.0000000000E-01 0. 9.
       4    1    8    0  103    0 -6.8388526354E+01  7.8427295254E+01 -1.8104489559E+02  2.0882369453E+02  1.5000000000E+00 0. 9.
</event>
<event>
    12   230  1.000000E+00  2.865195E+02  7.864355E-03  1.080060E-01
       2   -1    0    0  101    0  0.0000000000E+00  0.0000000000E+00  8.7640826515E+02  8.7640826515E+02  0.0000000000E+00 0. 9.
      -1   -1    0    0    0  101  0.0000000000E+00  0.0000000000E+00 -2.4753799492E+02  2.4753799492E+02  0.0000000000E+00 0. 9.
 1000024    2    1    2    0    0 -9.8725611713E+01 -2.2427103781E+00  7.5752881196E+02  8.0992697261E+02  2.6903535800E+02 0. 9.
 1000023    2    1    2    0    0  9.8725611713E+01  2.2427103781E+00 -1.2865854173E+02  3.1401928746E+02  2.6889276000E+02 0. 9.
 1000022    1    3    0    0    0  2.2787565083E+01 -3.5912583988E+01  3.9811365532E+02  4.2063589469E+02  1.2896157000E+02 0. 9.
      24    2    3    0    0    0 -1.2151317680E+02  3.3669873610E+01  3.5941515664E+02  3.8929107792E+02  8.0431188000E+01 0. 9.
 1000022    1    4    0    0    0  7.9715181994E+01  1.0442178814E+01 -3.8150242417E+01  1.5668464147E+02  1.2896157000E+02 0. 9.
      25    2    4    0    0    0  1.9010429719E+01 -8.1994684355E+00 -9.0508299315E+01  1.5733464599E+02  1.2701893900E+02 0. 9.
      -3    1    6    0    0  102 -5.3225562048E+01  5.0739885802E+01  2.3616689373E+02  2.4735106258E+02  5.0000000000E-01 0. 9.
       4    1    6    0  102    0 -6.8287614748E+01 -1.7070012192E+01  1.2324826291E+02  1.4194001534E+02  1.5000000000E+00 0. 9.
       5    1    8    0  103    0  4.3267886688E+00  5.0596705776E+01 -8.1117398990E+01  9.5821814607E+01  4.8000000000E+00 0. 9.
      -5    1    8    0    0  103  1.4683641050E+01 -5.8796174212E+01 -9.3909003249E+00  6.1512831388E+01  4.8000000000E+00 0. 9.
</event>
<event>
    12   226  1.000000E+00  3.382352E+02  7.879158E-03  1.056946E-01
      -2   -1    0    0    0  101  0.0000000000E+00  0.0000000000E+00  2.6540126107E+02  2.6540126107E+02  0.0000000000E+00 0. 9.
       2   -1    0    0  101    0  0.0000000000E+00  0.0000000000E+00 -4.7184057057E+02  4.7184057057E+02  0.0000000000E+00 0. 9.
-1000024    2    1    2    0    0 -7.8777579453E+01 -1.8925417575E+02 -2.1159360545E+02  3.9896732671E+02  2.6903535800E+02 0. 9.
 1000024    2    1    2    0    0  7.8777579453E+01  1.8925417575E+02  5.1542959550E+00  3.3827450493E+02  2.6903535800E+02 0. 9.
 1000022    1    3    0    0    0 -2.2614043693E+01 -3.7036146540E+01 -2.3889323172E+01  1.3814795482E+02  1.2896157000E+02 0. 9.
     -24    2    3    0    0    0 -5.6163535761E+01 -1.5221802921E+02 -1.8770428228E+02  2.6081937189E+02  8.0431188000E+01 0. 9.
 1000022    1    4    0    0    0  1.2712434897E+02  9.7701618363E+01 -1.1690082148E+01  2.0609209322E+02  1.2896157000E+02 0. 9.
      24    2    4    0    0    0 -4.8346769518E+01  9.1552557387E+01  1.6844378103E+01  1.3218241170E+02  8.0431188000E+01 0. 9.
       3    1    6    0  102    0 -6.8231856461E+01 -8.8340042812E+01 -1.4514977138E+02  1.8310722414E+02  5.0000000000E-01 0. 9.
      -4    1    6    0    0  102  1.2068320700E+01 -6.3877986399E+01 -4.2554510901E+01  7.7712147757E+01  1.5000000000E+00 0. 9.
      -1    1    8    0    0  103 -5.3014363639E+00  6.6871411222E+01  3.9247173626E+01  7.7719626890E+01  3.3000000000E-01 0. 9.
       4    1    8    0  103    0 -4.3045333155E+01  2.4681146165E+01 -2.2402795523E+01  5.4462784813E+01  1.5000000000E+00 0. 9.
</event>
<event>
    13   258  1.000000E+00  1.016522E+03  7.978749E-03  9.255904E-02
       2   -1    0    0  101    0  0.0000000000E+00  0.0000000000E+00  1.8555735242E+03  1.8555735242E+03  0.0000000000E+00 0. 9.
      21   -1    0    0  102  101  0.0000000000E+00  0.0000000000E+00 -5.5624349399E+02  5.5624349399E+02  0.0000000000E+00 0. 9.
 1000002    2    1    2  103    0 -2.4359626374E+02  3.2907707568E+02  6.3128212600E+02  1.2446817941E+03  9.9150632100E+02 0. 9.
 1000021    2    1    2  102  103  2.4359626374E+02 -3.2907707568E+02  6.6804790421E+02  1.1671352241E+03  8.6503512500E+02 0. 9.
 1000024    2    3    0    0    0 -2.2765459875E+02 -2.8704971793E+02  2.3206010176E+02  5.1034897039E+02  2.6903535800E+02 0. 9.
       1    1    3    0  103    0 -1.5941664990E+01  6.1612679361E+02  3.9922202424E+02  7.3433282374E+02  3.3000000000E-01 0. 9.
 1000022    1    4    0    0    0  2.8895726214E+02  2.6796649774E+01 -4.6318044046E+01  3.2092180905E+02  1.2896157000E+02 0. 9.
       4    1    4    0  102    0  3.5589310079E+01 -5.2709863599E+01 -2.5128994856E+00  6.3667050948E+01  1.5000000000E+00 0. 9.
      -4    1    4    0    0  103 -8.0950308473E+01 -3.0316386186E+02  7.1687884775E+02  7.8254636407E+02  1.5000000000E+00 0. 9.
 1000022    1    5    0    0    0 -6.0557982955E+01 -1.3973918521E+02  3.5768129801E+01  2.0274307591E+02  1.2896157000E+02 0. 9.
      24    2    5    0    0    0 -1.6709661580E+02 -1.4731053272E+02  1.9629197196E+02  3.0760589448E+02  8.0431188000E+01 0. 9.
      -3    1   11    0    0  104 -1.0928466030E+02 -1.4135379505E+02  1.4620681529E+02  2.3086947652E+02  5.0000000000E-01 0. 9.
       4    1   11    0  104    0 -5.7811955502E+01 -5.9567376621E+00  5.0085156670E+01  7.6736417959E+01  1.5000000000E+00 0. 9.
</event>
<event>
    17   259  1.000000E+00  1.024430E+03  7.979459E-03  9.247810E-02
      21   -1    0    0  101  102  0.0000000000E+00  0.0000000000E+00  5.7001678962E+02  5.7001678962E+02  0.0000000000E+00 0. 9.
       2   -1    0    0  102    0  0.0000000000E+00  0.0000000000E+00 -1.8476700472E+03  1.8476700472E+03  0.0000000000E+00 0. 9.
 1000021    2    1    2  101  103 -9.9304653674E+01  4.1727075865E+02 -7.0188459092E+02  1.1936934475E+03  8.6503512500E+02 0. 9.
 2000002    2    1    2  103    0  9.9304653674E+01 -4.1727075865E+02 -5.7576866663E+02  1.2239933893E+03  9.9129912700E+02 0. 9.
 1000024    2    3    0    0    0 -2.2884670126E+02  1.3931892943E+02 -2.2897199744E+02  4.4338332878E+02  2.6903535800E+02 0. 9.
      -6    2    3    0    0  103  2.0714295158E+02  8.8723166490E+01 -6.1431034464E+01  2.9077829124E+02  1.7320000000E+02 0. 9.
       5    1    3    0  101    0 -7.7600903999E+01  1.8922866273E+02 -4.1148155901E+02  4.5953182752E+02  4.8000000000E+00 0. 9.
 1000022    1    4    0    0    0  3.3955206299E+02 -1.4462783063E+02  1.4485850651E+02  4.1692671576E+02  1.2896157000E+02 0. 9.
       2    1    4    0  103    0 -2.4024740932E+02 -2.7264292802E+02 -7.2062717314E+02  8.0706667349E+02  3.3000000000E-01 0. 9.
 1000022    1    5    0    0    0 -1.7389279752E+02  4.0114643384E+01 -6.7483081101E+01  2.3028882390E+02  1.2896157000E+02 0. 9.
      24    2    5    0    0    0 -5.4953903744E+01  9.9204286043E+01 -1.6148891634E+02  2.1309450488E+02  8.0431188000E+01 0. 9.
     -24    2    6    0    0    0  9.2262581496E+01  2.8686680781E+01 -9.4080851800E+01  1.5702131154E+02  8.0431188000E+01 0. 9.
      -5    1    6    0    0  103  1.1488037009E+02  6.0036485709E+01  3.2649817336E+01  1.3375697971E+02  4.8000000000E+00 0. 9.
      -1    1   11    0    0  104 -1.6840820817E+01  6.5871498764E+01 -3.4207122920E+01  7.6111127660E+01  3.3000000000E-01 0. 9.
       2    1   11    0  104    0 -3.8113082927E+01  3.3332787279E+01 -1.2728179342E+02  1.3698337722E+02  3.3000000000E-01 0. 9.
       1    1   12    0  105    0 -9.1815767213E+00  2.0703774753E+01 -8.9723950833E+00  2.4363095321E+01  3.3000000000E-01 0. 9.
      -2    1   12    0    0  105  1.0144415822E+02  7.9829060286E+00 -8.5108456716E+01  1.3265821622E+02  3.3000000000E-01 0. 9.
</event>
<event>
    12   230  1.000000E+00  3.779478E+02  7.889092E-03  1.042027E-01
      -4   -1    0    0    0  101  0.0000000000E+00  0.0000000000E+00  3.3674921740E+02  3.3674921740E+02  0.0000000000E+00 0. 9.
       1   -1    0    0  101    0  0.0000000000E+00  0.0000000000E+00 -4.3179319429E+02  4.3179319429E+02  0.0000000000E+00 0. 9.
-1000024    2    1    2    0    0 -2.1561468214E+02 -1.5496187456E+02  3.4743122150E+00  3.7801450822E+02  2.6903535800E+02 0. 9.
 1000023    2    1    2    0    0  2.1561468214E+02  1.5496187456E+02 -9.8518289103E+01  3.9052790347E+02  2.6889276000E+02 0. 9.
 1000022    1    3    0    0    0 -1.7871818883E+02 -5.9209555482E+01  5.9920831038E+01  2.3593972749E+02  1.2896157000E+02 0. 9.
     -24    2    3    0    0    0 -3.6896493311E+01 -9.5752319082E+01 -5.6446518823E+01  1.4207478073E+02  8.0431188000E+01 0. 9.
 1000022    1    4    0    0    0  6.3833414026E+01  8.3870850360E+01 -5.7988790288E+01  1.7635988949E+02  1.2896157000E+02 0. 9.
      25    2    4    0    0    0  1.5178126812E+02  7.1091024204E+01 -4.0529498816E+01  2.1416801398E+02  1.2701893900E+02 0. 9.
       3    1    6    0  102    0 -1.7252497930E+01  8.9706543278E+00  3.5688453969E+00  1.9776450171E+01  5.0000000000E-01 0. 9.
      -4    1    6    0    0  102 -1.9643995381E+01 -1.0472297341E+02 -6.0015364220E+01  1.2229833056E+02  1.5000000000E+00 0. 9.
       5    1    8    0  103    0  1.3513364255E+00  4.1802644172E+01  2.3261224058E+01  4.8097938777E+01  4.8000000000E+00 0. 9.
      -5    1    8    0    0  103  1.5042993169E+02  2.9288380032E+01 -6.3790722873E+01  1.6607007520E+02  4.8000000000E+00 0. 9.
</event>
<event>
    12   230  1.000000E+00  3.066713E+02  7.870412E-03  1.070471E-01
       2   -1    0    0  101    0  0.0000000000E+00  0.0000000000E+00  4.8470349061E+01  4.8470349061E+01  0.0000000000E+00 0. 9.
      -1   -1    0    0    0  101  0.0000000000E+00  0.0000000000E+00 -2.0186482302E+03  2.0186482302E+03  0.0000000000E+00 0. 9.
 1000024    2    1    2    0    0 -1.2607971479E+02  7.6220288122E+01 -7.8166973970E+02  8.3969829857E+02  2.6903535800E+02 0. 9.
 1000023    2    1    2    0    0  1.2607971479E+02 -7.6220288122E+01 -1.1885081414E+03  1.2274202807E+03  2.6889276000E+02 0. 9.
 1000022    1    3    0    0    0 -4.8846090163E+00 -1.9616678280E+01 -2.8810934056E+02  3.1630167898E+02  1.2896157000E+02 0. 9.
      24    2    3    0    0    0 -1.2119510578E+02  9.5836966402E+01 -4.9356039914E+02  5.2339661959E+02  8.0431188000E+01 0. 9.
 1000022    1    4    0    0    0  1.0075906660E+02 -3.5987024693E+01 -9.8769036998E+02  1.0018037777E+03  1.2896157000E+02 0. 9.
      23    2    4    0    0    0  2.5320648199E+01 -4.0233263429E+01 -2.0081777144E+02  2.2561650301E+02  9.1187600000E+01 0. 9.
     -13    1    6    0    0    0 -3.8797016731E+01  3.0277327302E+01 -6.1902326542E+01  7.9081187719E+01  1.0566000000E-01 0. 9.
      14    1    6    0    0    0 -8.2398089048E+01  6.5559639100E+01 -4.3165807260E+02  4.4431543187E+02  0.0000000000E+00 0. 9.
       3    1    8    0  102    0  4.8412898930E+01 -1.7169431480E+01 -5.1378497142E+01  7.2653961549E+01  5.0000000000E-01 0. 9.
      -3    1    8    0    0  102 -2.3092250731E+01 -2.3063831949E+01 -1.4943927430E+02  1.5296254147E+02  5.0000000000E-01 0. 9.
</event>
<event>
    13   258  1.000000E+00  1.028609E+03  7.979832E-03  9.243563E-02
      21   -1    0    0  101  102  0.0000000000E+00  0.0000000000E+00  6.1524743378E+02  6.1524743378E+02  0.0000000000E+00 0. 9.
       1   -1    0    0  102    0  0.0000000000E+00  0.0000000000E+00 -1.8278672488E+03  1.8278672488E+03  0.0000000000E+00 0. 9.
 1000021    2    1    2  101  103 -2.5459871603E+02 -3.5318379451E+02 -2.6965724131E+02  1.0052661808E+03  8.6503512500E+02 0. 9.
 1000001    2    1    2  103    0  2.5459871603E+02  3.5318379451E+02 -9.4296257376E+02  1.4378485019E+03  9.9431916400E+02 0. 9.
 1000022    1    3    0    0    0  2.8913792452E+01 -2.8999176952E+01 -1.1906931090E+02  1.8023747389E+02  1.2896157000E+02 0. 9.
       1    1    3    0  101    0 -3.4673845734E+02 -1.8723649615E+02 -3.8198156213E+02  5.4881243244E+02  3.3000000000E-01 0. 9.
      -1    1    3    0    0  103  6.3225948853E+01 -1.3694812141E+02  2.3139363172E+02  2.7621627444E+02  3.3000000000E-01 0. 9.
-1000024    2    4    0    0    0  4.4593837751E+02  5.0943177861E+02 -9.4195498050E+02  1.1908152597E+03  2.6903535800E+02 0. 9.
       2    1    4    0  103    0 -1.9133966147E+02 -1.5624798410E+02 -1.0075932561E+00  2.4703324216E+02  3.3000000000E-01 0. 9.
 1000022    1    8    0    0    0  3.2836226500E+02  2.5044949227E+02 -5.7681107252E+02  7.2103316510E+02  1.2896157000E+02 0. 9.
     -24    2    8    0    0    0  1.1757611251E+02  2.5898228634E+02 -3.6514390798E+02  4.6978209460E+02  8.0431188000E+01 0. 9.
      13    1   11    0    0    0  4.9219916384E+01  4.5580399518E+01 -5.2792867748E+01  8.5365514337E+01  1.0566000000E-01 0. 9.
     -14    1   11    0    0    0  6.8356196124E+01  2.1340188682E+02 -3.1235104024E+02  3.8441658027E+02  0.0000000000E+00 0. 9.
</event>
<event>
    24   259  1.000000E+00  9.448443E+02  7.972053E-03  9.332979E-02
       1   -1    0    0  101    0  0.0000000000E+00  0.0000000000E+00  1.9367326230E+03  1.9367326230E+03  0.0000000000E+00 0. 9.
      21   -1    0    0  102  101  0.0000000000E+00  0.0000000000E+00 -4.7997658365E+02  4.7997658365E+02  0.0000000000E+00 0. 9.
 2000001    2    1    2  103    0  1.3748444752E+02  8.9139896122E+01  5.2199849058E+02  1.1326121165E+03  9.9170554500E+02 0. 9.
 1000021    2    1    2  102  103 -1.3748444752E+02 -8.9139896122E+01  9.3475754882E+02  1.2840970902E+03  8.6503512500E+02 0. 9.
 1000021    2    3    0  103  104  4.3484576570E+00  9.0980649004E+01  4.2648254105E+02  9.6874636148E+02  8.6503512500E+02 0. 9.
       1    1    3    0  104    0  1.3313598986E+02 -1.8407528823E+00  9.5515949532E+01  1.6386575506E+02  3.3000000000E-01 0. 9.
-1000024    2    4    0    0    0 -6.8852539225E+01 -1.8829263065E+01  3.0210535560E+02  4.1078325556E+02  2.6903535800E+02 0. 9.
       6    2    4    0  102    0  1.0336460727E+02 -2.2020172705E+02  1.3881738597E+02  3.2930464509E+02  1.7320000000E+02 0. 9.
      -5    1    4    0    0  103 -1.7199651556E+02  1.4989109399E+02  4.9383480724E+02  5.4400918951E+02  4.8000000000E+00 0. 9.
 1000024    2    5    0    0    0 -1.1145493532E+02 -6.1364514109E+01 -1.3911326524E+01  2.9792843949E+02  2.6903535800E+02 0. 9.
      -2    1    5    0    0  104  1.8267740861E+02  2.2400315899E+02  4.8384037793E+02  5.6360453429E+02  3.3000000000E-01 0. 9.
       1    1    5    0  103    0 -6.6874015632E+01 -7.1657995878E+01 -4.3446510356E+01  1.0721338770E+02  3.3000000000E-01 0. 9.
 1000022    1    7    0    0    0 -7.7754196342E+01 -2.8382821332E+01  7.7231700104E+01  1.7160163645E+02  1.2896157000E+02 0. 9.
     -24    2    7    0    0    0  8.9016571165E+00  9.5535582673E+00  2.2487365550E+02  2.3918161910E+02  8.0431188000E+01 0. 9.
      24    2    8    0    0    0  5.5349809449E+01 -1.8790524903E+02  1.6216839747E+02  2.6672035761E+02  8.0431188000E+01 0. 9.
       5    1    8    0  102    0  4.8014797818E+01 -3.2296478019E+01 -2.3351011502E+01  6.2584287486E+01  4.8000000000E+00 0. 9.
 1000022    1   10    0    0    0 -9.1908140619E+01  4.1339912892E+01 -2.4957140717E+01  1.6555977809E+02  1.2896157000E+02 0. 9.
      24    2   10    0    0    0 -1.9546794702E+01 -1.0270442700E+02  1.1045814193E+01  1.3236866141E+02  8.0431188000E+01 0. 9.
      11    1   14    0    0    0 -1.7704119550E+01 -2.7615041877E+01  1.2687553379E+02  1.3104742448E+02  5.1000000000E-04 0. 9.
     -12    1   14    0    0    0  2.6605776666E+01  3.7168600144E+01  9.7998121709E+01  1.0813419463E+02  0.0000000000E+00 0. 9.
      -1    1   15    0    0  105  4.9549407883E+01 -1.2686647048E+02  6.2853561330E+01  1.5000308072E+02  3.3000000000E-01 0. 9.
       2    1   15    0  105    0  5.8004015660E+00 -6.1038778548E+01  9.9314836142E+01  1.1671727688E+02  3.3000000000E-01 0. 9.
      -3    1   18    0    0  106 -9.7836382689E+00 -9.1512039308E+01  3.9564975395E+01  1.0017889096E+02  5.0000000000E-01 0. 9.
       4    1   18    0  106    0 -9.7631564332E+00 -1.1192387693E+01 -2.8519161202E+01  3.2189770448E+01  1.5000000000E+00 0. 9.
</event>
<event>
    21   258  1.000000E+00  9.424070E+02  7.971817E-03  9.335725E-02
      21   -1    0    0  101  102  0.0000000000E+00  0.0000000000E+00  1.2757717913E+03  1.2757717913E+03  0.0000000000E+00 0. 9.
      -1   -1    0    0    0  101  0.0000000000E+00  0.0000000000E+00 -6.9299134401E+02  6.9299134401E+02  0.0000000000E+00 0. 9.
 1000021    2    1    2  103  102 -3.8345455534E+01  1.3484210344E+02  2.6397079382E+02  9.1521533766E+02  8.6503512500E+02 0. 9.
-1000001    2    1    2    0  103  3.8345455534E+01 -1.3484210344E+02  3.1880965342E+02  1.0535477976E+03  9.9431916400E+02 0. 9.
 1000024    2    3    0    0    0  2.0630124120E+01  1.1673106557E+02 -7.9737809241E+01  3.0461432298E+02  2.6903535800E+02 0. 9.
      -6    2    3    0    0  102 -3.0253247374E+01  2.2960042504E+02  1.7066459447E+02  3.3579198614E+02  1.7320000000E+02 0. 9.
       5    1    3    0  103    0 -2.8722332280E+01 -2.1148938716E+02  1.7304400860E+02  2.7480902854E+02  4.8000000000E+00 0. 9.
 1000024    2    4    0    0    0 -3.5399436151E+02  8.9889797334E+01 -6.7788759663E+01  4.5865839514E+02  2.6903535800E+02 0. 9.
      -2    1    4    0    0  103  3.9233981704E+02 -2.2473190077E+02  3.8659841309E+02  5.9488940246E+02  3.3000000000E-01 0. 9.
 1000022    1    5    0    0    0  3.8652579563E+01  1.4123158291E+02 -1.2611468219E+01  1.9552625804E+02  1.2896157000E+02 0. 9.
      24    2    5    0    0    0 -1.8022455443E+01 -2.4500517340E+01 -6.7126341021E+01  1.0908806494E+02  8.0431188000E+01 0. 9.
     -24    2    6    0    0    0 -6.1667501220E+01  1.2745840690E+02  4.1432559052E+01  1.6803082797E+02  8.0431188000E+01 0. 9.
      -5    1    6    0    0  102  3.1414253846E+01  1.0214201814E+02  1.2923203542E+02  1.6776115818E+02  4.8000000000E+00 0. 9.
 1000022    1    8    0    0    0 -2.5881924580E+02  7.3543978080E+01  2.9353711225E+01  2.9981468545E+02  1.2896157000E+02 0. 9.
      24    2    8    0    0    0 -9.5175115701E+01  1.6345819254E+01 -9.7142470888E+01  1.5884370969E+02  8.0431188000E+01 0. 9.
     -15    1   11    0    0    0 -2.3385880104E+01 -2.8450493890E+01 -8.3572239017E+01  9.1344440740E+01  1.7770000000E+00 0. 9.
      16    1   11    0    0    0  5.3634246617E+00  3.9499765501E+00  1.6445897995E+01  1.7743624199E+01  0.0000000000E+00 0. 9.
       3    1   12    0  104    0 -7.4866570347E+00 -6.7504563435E+00  1.9065484974E+01  2.1572237058E+01  5.0000000000E-01 0. 9.
      -4    1   12    0    0  104 -5.4180844185E+01  1.3420886324E+02  2.2367074078E+01  1.4645859091E+02  1.5000000000E+00 0. 9.
      -1    1   15    0    0  105  2.5542488300E+00 -5.1015554475E+00  1.0454403584E+01  1.1914424425E+01  3.3000000000E-01 0. 9.
       2    1   15    0  105    0 -9.7729364531E+01  2.1447374702E+01 -1.0759687447E+02  1.4692928527E+02  3.3000000000E-01 0. 9.
</event>
<event>
    12   217  1.000000E+00  3.208857E+02  7.874454E-03  1.064173E-01
      -2   -1    0    0    0  101  0.0000000000E+00  0.0000000000E+00  1.6179121412E+02  1.6179121412E+02  0.0000000000E+00 0. 9.
       2   -1    0    0  101    0  0.0000000000E+00  0.0000000000E+00 -1.1975724813E+03  1.1975724813E+03  0.0000000000E+00 0. 9.
 1000023    2    1    2    0    0 -1.4370368666E+02 -1.0006796882E+02 -5.2632455473E+01  3.2517355319E+02  2.6889276000E+02 0. 9.
 1000023    2    1    2    0    0  1.4370368666E+02  1.0006796882E+02 -9.8314881170E+02  1.0341901422E+03  2.6889276000E+02 0. 9.
 1000022    1    3    0    0    0 -4.7742897483E+01 -1.5281244458E+01 -4.1566753561E+01  1.4447069679E+02  1.2896157000E+02 0. 9.
      25    2    3    0    0    0 -9.5960789174E+01 -8.4786724360E+01 -1.1065701912E+01  1.8070285640E+02  1.2701893900E+02 0. 9.
 1000022    1    4    0    0    0  3.7257243805E+01  7.3377728782E+01 -4.6026504941E+02  4.8502308764E+02  1.2896157000E+02 0. 9.
      25    2    4    0    0    0  1.0644644285E+02  2.6690240035E+01 -5.2288376228E+02  5.4916705457E+02  1.2701893900E+02 0. 9.
     -15    1    6    0    0    0 -1.1463531550E+02 -3.8708019703E+01 -3.4328166405E+01  1.2578214137E+02  1.7770000000E+00 0. 9.
      15    1    6    0    0    0  1.8674526324E+01 -4.6078704657E+01  2.3262464493E+01  5.4920715032E+01  1.7770000000E+00 0. 9.
      21    1    8    0  102  103  7.3394821959E+00 -4.4290127896E+01 -1.1484853983E+02  1.2331127494E+02  0.0000000000E+00 0. 9.
      21    1    8    0  103  102  9.9106960655E+01  7.0980367931E+01 -4.0803522245E+02  4.2585577963E+02  0.0000000000E+00 0. 9.
</event>
<event>
    12   230  1.000000E+00  2.969883E+02  7.867552E-03  1.074976E-01
      -2   -1    0    0    0  101  0.0000000000E+00  0.0000000000E+00  1.0921467482E+02  1.0921467482E+02  0.0000000000E+00 0. 9.
       1   -1    0    0  101    0  0.0000000000E+00  0.0000000000E+00 -8.1348967382E+02  8.1348967382E+02  0.0000000000E+00 0. 9.
-1000024    2    1    2    0    0  6.7705371991E+01 -1.0619015931E+02 -3.9146116387E+02  4.9140841874E+02  2.6903535800E+02 0. 9.
 1000023    2    1    2    0    0 -6.7705371991E+01  1.0619015931E+02 -3.1281383513E+02  4.3129592991E+02  2.6889276000E+02 0. 9.
 1000022    1    3    0    0    0  1.3445297893E+00 -3.5022788108E+01 -3.1896294385E+02  3.4582777438E+02  1.2896157000E+02 0. 9.
     -24    2    3    0    0    0  6.6360842202E+01 -7.1167371202E+01 -7.2498220023E+01  1.4558064436E+02  8.0431188000E+01 0. 9.
 1000022    1    4    0    0    0 -2.2136002342E+01  5.5440781866E+01 -2.1257442407E+02  2.5570032303E+02  1.2896157000E+02 0. 9.
      25    2    4    0    0    0 -4.5569369649E+01  5.0749377444E+01 -1.0023941106E+02  1.7559560688E+02  1.2701893900E+02 0. 9.
      13    1    6    0    0    0  7.1555706036E+01 -7.6381749075E+01 -3.9656563687E+01  1.1192428184E+02  1.0566000000E-01 0. 9.
     -14    1    6    0    0    0 -5.1948638343E+00  5.2143778731E+00 -3.2841656336E+01  3.3656362515E+01  0.0000000000E+00 0. 9.
       5    1    8    0  102    0 -1.0287435325E+01  7.3179042122E+01 -8.3441467087E+00  7.4522938185E+01  4.8000000000E+00 0. 9.
      -5    1    8    0    0  102 -3.5281934325E+01 -2.2429664678E+01 -9.1895264347E+01  1.0107266869E+02  4.8000000000E+00 0. 9.
</event>
<event>
    24   259  1.000000E+00  9.542550E+02  7.972960E-03  9.322457E-02
       2   -1    0    0  101    0  0.0000000000E+00  0.0000000000E+00  1.5180214157E+03  1.5180214157E+03  0.0000000000E+00 0. 9.
      21   -1    0    0  102  101  0.0000000000E+00  0.0000000000E+00 -7.9237568624E+02  7.9237568624E+02  0.0000000000E+00 0. 9.
 2000002    2    1    2  103    0 -4.3548995585E+01 -2.0790918998E+02  9.5267865336E+02  1.3911841438E+03  9.9129912700E+02 0. 9.
 1000021    2    1    2  102  103  4.3548995585E+01  2.0790918998E+02 -2.2703292391E+02  9.1921295809E+02  8.6503512500E+02 0. 9.
 1000021    2    3    0  103  104  6.9312073922E+01 -2.2770170038E+02  8.7131675857E+02  1.2506521855E+03  8.6503512500E+02 0. 9.
       2    1    3    0  104    0 -1.1286106951E+02  1.9792510398E+01  8.1361894794E+01  1.4053195830E+02  3.3000000000E-01 0. 9.
 1000024    2    4    0    0    0 -1.9126157673E+01  1.3764884312E+02  1.6278090568E+02  3.4378868659E+02  2.6903535800E+02 0. 9.
      -6    2    4    0    0  103  2.0178512678E+02  7.1939156302E+01 -2.0180401224E+02  3.4149023259E+02  1.7320000000E+02 0. 9.
       5    1    4    0  102    0 -1.3910997353E+02 -1.6788094369E+00 -1.8800981736E+02  2.3393403890E+02  4.8000000000E+00 0. 9.
 1000023    2    5    0    0    0 -6.7945168812E+01 -3.0388507598E+02  5.2171508856E+02  6.6441902094E+02  2.6889276000E+02 0. 9.
       3    1    5    0  103    0  2.2855904886E+02 -1.1241635899E+02  1.4364067256E+02  2.9242019321E+02  5.0000000000E-01 0. 9.
      -3    1    5    0    0  104 -9.1301806128E+01  1.8859973459E+02  2.0596099745E+02  2.9381297139E+02  5.0000000000E-01 0. 9.
 1000022    1    7    0    0    0 -8.3878262303E+01  3.6756226077E+01  9.2394996815E+01  1.8317888802E+02  1.2896157000E+02 0. 9.
      24    2    7    0    0    0  6.4752104631E+01  1.0089261704E+02  7.0385908870E+01  1.6060979857E+02  8.0431188000E+01 0. 9.
     -24    2    8    0    0    0  1.9726596794E+02  7.1082952915E+01 -1.1112622884E+02  2.5056907838E+02  8.0431188000E+01 0. 9.
      -5    1    8    0    0  103  4.5191588487E+00  8.5620338726E-01 -9.0677783403E+01  9.0921154216E+01  4.8000000000E+00 0. 9.
 1000022    1   10    0    0    0  2.9873083716E+01 -1.8005458219E+02  3.4138249272E+02  4.0802591409E+02  1.2896157000E+02 0. 9.
      23    2   10    0    0    0 -9.7818252528E+01 -1.2383049380E+02  1.8033259584E+02  2.5639310684E+02  9.1187600000E+01 0. 9.
      -1    1   14    0    0  105  6.5966164314E+01  9.8762494973E+01  8.4832556828E+01  1.4595285830E+02  3.3000000000E-01 0. 9.
       2    1   14    0  105    0 -1.2140596832E+00  2.1301220655E+00 -1.4446647959E+01  1.4656940273E+01  3.3000000000E-01 0. 9.
       1    1   15    0  106    0  9.8124553880E+01  7.1136369545E+00 -1.7455536366E+01  9.9919150090E+01  3.3000000000E-01 0. 9.
      -2    1   15    0    0  106  9.9141414056E+01  6.3969315960E+01 -9.3670692469E+01  1.5064992829E+02  3.3000000000E-01 0. 9.
       2    1   18    0  107    0 -4.8565612117E+01 -1.3025348606E+00  3.4095656012E+01  5.9354342185E+01  3.3000000000E-01 0. 9.
      -2    1   18    0    0  107 -4.9252640412E+01 -1.2252795894E+02  1.4623693983E+02  1.9703876466E+02  3.3000000000E-01 0. 9.
</event>
<event>
    18   244  1.000000E+00  8.894675E+02  7.966531E-03  9.397616E-02
      21   -1    0    0  101  102  0.0000000000E+00  0.0000000000E+00  1.6552759434E+03  1.6552759434E+03  0.0000000000E+00 0. 9.
      21   -1    0    0  103  101  0.0000000000E+00  0.0000000000E+00 -6.4981804182E+02  6.4981804182E+02  0.0000000000E+00 0. 9.
 1000021    2    1    2  103  104  1.0537837964E+02 -1.7821899253E+02 -8.9991914266E+01  8.9400834689E+02  8.6503512500E+02 0. 9.
 1000021    2    1    2  104  102 -1.0537837964E+02  1.7821899253E+02  1.0954498159E+03  1.4110856384E+03  8.6503512500E+02 0. 9.
 1000023    2    3    0    0    0  1.7021435918E+01 -3.0233740953E+02 -3.3951332264E+02  5.2846026446E+02  2.6889276000E+02 0. 9.
       3    1    3    0  103    0  1.5973843322E+02  1.0103803518E+02  1.5223507288E+02  2.4269490933E+02  5.0000000000E-01 0. 9.
      -3    1    3    0    0  104 -7.1381489501E+01  2.3080381826E+01  9.7286335493E+01  1.2285317311E+02  5.0000000000E-01 0. 9.
 1000023    2    4    0    0    0  8.8503721318E+01  3.7299967563E+02  6.5402279583E+02  8.0436981579E+02  2.6889276000E+02 0. 9.
       5    1    4    0  104    0 -1.2299308695E+02 -6.6487131006E+01 -1.7468505646E+00  1.3990686014E+02  4.8000000000E+00 0. 9.
      -5    1    4    0    0  102 -7.0889014008E+01 -1.2829355209E+02  4.4317387061E+02  4.6680896243E+02  4.8000000000E+00 0. 9.
 1000022    1    5    0    0    0  3.3971045624E+01 -1.2273198945E+02 -1.2091565060E+02  2.1787348226E+02  1.2896157000E+02 0. 9.
      25    2    5    0    0    0 -1.6949609706E+01 -1.7960542008E+02 -2.1859767203E+02  3.1058678220E+02  1.2701893900E+02 0. 9.
 1000022    1    8    0    0    0  2.5416371783E+01  1.8859935742E+02  2.6232802512E+02  3.4880193359E+02  1.2896157000E+02 0. 9.
      25    2    8    0    0    0  6.3087349534E+01  1.8440031821E+02  3.9169477072E+02  4.5556788221E+02  1.2701893900E+02 0. 9.
      21    1   12    0  105  106 -2.0662843744E+01 -4.6661141692E+01  4.1028372861E+00  5.1196176902E+01  0.0000000000E+00 0. 9.
      21    1   12    0  106  105  3.7132340379E+00 -1.3294427839E+02 -2.2270050932E+02  2.5939060530E+02  0.0000000000E+00 0. 9.
       5    1   14    0  107    0 -3.6779528056E+01  7.1894757807E+01  1.5978009722E+02  1.7909301871E+02  4.8000000000E+00 0. 9.
      -5    1   14    0    0  107  9.9866877590E+01  1.1250556040E+02  2.3191467350E+02  2.7647486350E+02  4.8000000000E+00 0. 9.
</event>
<event>
    16   271  1.000000E+00  1.254285E+03  7.998058E-03  9.041287E-02
       2   -1    0    0  101    0  0.0000000000E+00  0.0000000000E+00  1.3424124939E+03  1.3424124939E+03  0.0000000000E+00 0. 9.
       2   -1    0    0  102    0  0.0000000000E+00  0.0000000000E+00 -1.5676544083E+03  1.5676544083E+03  0.0000000000E+00 0. 9.
 1000002    2    1    2  101    0  7.6330184870E+02 -8.6696832798E+01 -8.4365421491E+02  1.5116161126E+03  9.9150632100E+02 0. 9.
 1000002    2    1    2  102    0 -7.6330184870E+02  8.6696832798E+01  6.1841230048E+02  1.3984507896E+03  9.9150632100E+02 0. 9.
 1000023    2    3    0    0    0  7.4081619031E+02 -4.0499859814E+02 -7.9184769388E+02  1.1883427868E+03  2.6889276000E+02 0. 9.
       2    1    3    0  101    0  2.2485658396E+01  3.1830176535E+02 -5.1806521030E+01  3.2327332580E+02  3.3000000000E-01 0. 9.
 1000024    2    4    0    0    0 -7.4438509760E+02 -3.1393748878E+02  4.5413500210E+02  9.6503085151E+02  2.6903535800E+02 0. 9.
       1    1    4    0  102    0 -1.8916751109E+01  4.0063432158E+02  1.6427729839E+02  4.3341993812E+02  3.3000000000E-01 0. 9.
 1000022    1    5    0    0    0  4.6904346135E+02 -2.4104414930E+02 -5.1711073043E+02  7.4975905770E+02  1.2896157000E+02 0. 9.
      25    2    5    0    0    0  2.7177272896E+02 -1.6395444884E+02 -2.7473696345E+02  4.3858372913E+02  1.2701893900E+02 0. 9.
 1000022    1    7    0    0    0 -6.0205256115E+02 -3.0444628669E+02  3.4923356207E+02  7.7055174731E+02  1.2896157000E+02 0. 9.
      24    2    7    0    0    0 -1.4233253645E+02 -9.4912020849E+00  1.0490144002E+02  1.9447910420E+02  8.0431188000E+01 0. 9.
       5    1   10    0  103    0  1.9182246644E+02 -1.3378584874E+02 -2.6335844027E+02  3.5224312628E+02  4.8000000000E+00 0. 9.
      -5    1   10    0    0  103  7.9950262521E+01 -3.0168600105E+01 -1.1378523185E+01  8.6340602844E+01  4.8000000000E+00 0. 9.
      -1    1   12    0    0  104 -1.0146160918E+02  1.0087475263E+01  1.0865523178E+02  1.4900430728E+02  3.3000000000E-01 0. 9.
       2    1   12    0  104    0 -4.0870927267E+01 -1.9578677348E+01 -3.7537917576E+00  4.5474796920E+01  3.3000000000E-01 0. 9.
</event>
<event>
    12   226  1.000000E+00  3.982369E+02  7.893780E-03  1.035145E-01
       2   -1    0    0  101    0  0.0000000000E+00  0.0000000000E+00  2.4559188917E+03  2.4559188917E+03  0.0000000000E+00 0. 9.
      -2   -1    0    0    0  101  0.0000000000E+00  0.0000000000E+00 -9.0154119088E+01  9.0154119088E+01  0.0000000000E+00 0. 9.
 1000024    2    1    2    0    0  1.4572732268E+02  2.5490422224E+02  1.8609688381E+03  1.9031021137E+03  2.6903535800E+02 0. 9.
-1000024    2    1    2    0    0 -1.4572732268E+02 -2.5490422224E+02  5.0479593451E+02  6.4297089704E+02  2.6903535800E+02 0. 9.
 1000022    1    3    0    0    0  1.3307918202E+02  1.7409571461E+02  8.9729465637E+02  9.3262434743E+02  1.2896157000E+02 0. 9.
      24    2    3    0    0    0  1.2648140658E+01  8.0808507635E+01  9.6367418171E+02  9.7047776630E+02  8.0431188000E+01 0. 9.
 1000022    1    4    0    0    0 -9.9541837770E+01 -1.8405269657E+02  2.0096387012E+02  3.1749257663E+02  1.2896157000E+02 0. 9.
     -24    2    4    0    0    0 -4.6185484909E+01 -7.0851525669E+01  3.0383206439E+02  3.2547832042E+02  8.0431188000E+01 0. 9.
      -1    1    6    0    0  102  3.8937097520E+01  7.8973207412E+01  7.1035805445E+02  7.1579434161E+02  3.3000000000E-01 0. 9.
       2    1    6    0  102    0 -2.6288956861E+01  1.8353002225E+00  2.5331612726E+02  2.5468342469E+02  3.3000000000E-01 0. 9.
      11    1    8    0    0    0 -2.5885597369E+00 -3.2991192324E+01  2.7061277309E+01  4.2748475321E+01  5.1000000000E-04 0. 9.
     -12    1    8    0    0    0 -4.3596925172E+01 -3.7860333346E+01  2.7677078708E+02  2.8272984509E+02  0.0000000000E+00 0. 9.
</event>
<event>
    18   243  1.000000E+00  8.930764E+02  7.966901E-03  9.393255E-02
       2   -1    0    0  101    0  0.0000000000E+00  0.0000000000E+00  2.2482443047E+03  2.2482443047E+03  0.0000000000E+00 0. 9.
      -2   -1    0    0    0  102  0.0000000000E+00  0.0000000000E+00 -3.5594616805E+02  3.5594616805E+02  0.0000000000E+00 0. 9.
 1000021    2    1    2  101  103  6.0862684647E+00  2.2195176079E+02  1.0213401927E+03  1.3567318024E+03  8.6503512500E+02 0. 9.
 1000021    2    1    2  103  102 -6.0862684647E+00 -2.2195176079E+02  8.7095794395E+02  1.2474586704E+03  8.6503512500E+02 0. 9.
 1000023    2    3    0    0    0  2.8900957423E+01  9.4170618502E+01  2.0477815393E+02  3.5205223964E+02  2.6889276000E+02 0. 9.
       5    1    3    0  101    0 -2.0916017649E+02  1.9497354434E+02  1.7981724757E+02  3.3781643676E+02  4.8000000000E+00 0. 9.
      -5    1    3    0    0  103  1.8634548753E+02 -6.7192402052E+01  6.3674479124E+02  6.6686312597E+02  4.8000000000E+00 0. 9.
 1000024    2    4    0    0    0 -1.1697238134E+02  5.0202925876E+01  3.3867637208E+02  4.5087091348E+02  2.6903535800E+02 0. 9.
      -4    1    4    0    0  102 -4.3987025095E+01  1.4295350446E+02  1.3649402223E+02  2.0249303919E+02  1.5000000000E+00 0. 9.
       3    1    4    0  103    0  1.5487313797E+02 -4.1510819113E+02  3.9578754964E+02  5.9409471775E+02  5.0000000000E-01 0. 9.
 1000022    1    5    0    0    0  1.7674391257E+01  2.5101601347E+01  1.4129608629E+02  1.9374763234E+02  1.2896157000E+02 0. 9.
      25    2    5    0    0    0  1.1226566166E+01  6.9069017155E+01  6.3482067640E+01  1.5830460731E+02  1.2701893900E+02 0. 9.
 1000022    1    8    0    0    0  1.2864305001E-01  6.0004741501E+01  1.0337543576E+02  1.7583558458E+02  1.2896157000E+02 0. 9.
      24    2    8    0    0    0 -1.1710102439E+02 -9.8018156247E+00  2.3530093633E+02  2.7503532890E+02  8.0431188000E+01 0. 9.
       5    1   12    0  104    0 -3.1845215820E-01 -3.6751713170E+01  7.0593116655E+00  3.7731468483E+01  4.8000000000E+00 0. 9.
      -5    1   12    0    0  104  1.1545018325E+01  1.0582073032E+02  5.6422755975E+01  1.2057313883E+02  4.8000000000E+00 0. 9.
     -11    1   14    0    0    0 -4.1308002495E+01  3.4469188659E+01  1.0409641032E+02  1.1717738126E+02  5.1000000000E-04 0. 9.
      12    1   14    0    0    0 -7.5793021891E+01 -4.4271004283E+01  1.3120452601E+02  1.5785794764E+02  0.0000000000E+00 0. 9.
</event>
<event>
    12   230  1.000000E+00  2.799888E+02  7.862303E-03  1.083352E-01
      -1   -1    0    0    0  101  0.0000000000E+00  0.0000000000E+00  1.6661779748E+02  1.6661779748E+02  0.0000000000E+00 0. 9.
       2   -1    0    0  101    0  0.0000000000E+00  0.0000000000E+00 -5.8616277405E+02  5.8616277405E+02  0.0000000000E+00 0. 9.
 1000023    2    1    2    0    0  6.3615222086E+01  4.4778778936E+01 -3.7692725678E+02  4.6949921066E+02  2.6889276000E+02 0. 9.
 1000024    2    1    2    0    0 -6.3615222086E+01 -4.4778778936E+01 -4.2617719794E+01  2.8328136087E+02  2.6903535800E+02 0. 9.
 1000022    1    3    0    0    0  5.4999759333E+01  5.7258487468E+01 -2.1902472144E+02  2.6628259998E+02  1.2896157000E+02 0. 9.
      25    2    3    0    0    0  8.6154627532E+00 -1.2479708532E+01 -1.5790253534E+02  2.0321661068E+02  1.2701893900E+02 0. 9.
 1000022    1    4    0    0    0  3.0988067231E+01  2.5904411306E+01 -3.6759796419E+00  1.3518838041E+02  1.2896157000E+02 0. 9.
      24    2    4    0    0    0 -9.4603289317E+01 -7.0683190242E+01 -3.8941740152E+01  1.4809298046E+02  8.0431188000E+01 0. 9.
       5    1    6    0  102    0 -2.6416964150E+01 -5.5895695755E+01 -4.3192263884E+01  7.5569811818E+01  4.8000000000E+00 0. 9.
      -5    1    6    0    0  102  3.5032426903E+01  4.3415987223E+01 -1.1471027145E+02  1.2764679886E+02  4.8000000000E+00 0. 9.
     -15    1    8    0    0    0 -2.3318973730E+01 -5.5004600117E+01 -4.5055186895E+01  7.4849236235E+01  1.7770000000E+00 0. 9.
      16    1    8    0    0    0 -7.1284315586E+01 -1.5678590125E+01  6.1134467432E+00  7.3243744224E+01  0.0000000000E+00 0. 9.
</event>
<event>
    12   230  1.000000E+00  4.690578E+02  7.908491E-03  1.014178E-01
      -1   -1    0    0    0  101  0.0000000000E+00  0.0000000000E+00  3.2405883118E+02  3.2405883118E+02  0.0000000000E+00 0. 9.
       2   -1    0    0  101    0  0.0000000000E+00  0.0000000000E+00 -7.4635051588E+02  7.4635051588E+02  0.0000000000E+00 0. 9.
 1000023    2    1    2    0    0 -1.8530035117E+02 -3.3665607276E+02 -5.0277549650E+01  4.7170401721E+02  2.6889276000E+02 0. 9.
 1000024    2    1    2    0    0  1.8530035117E+02  3.3665607276E+02 -3.7201413505E+02  5.9870532986E+02  2.6903535800E+02 0. 9.
 1000022    1    3    0    0    0 -7.4257274058E+01 -1.4040810697E+02  1.3890146844E+01  2.0506731082E+02  1.2896157000E+02 0. 9.
      25    2    3    0    0    0 -1.1104307711E+02 -1.9624796579E+02 -6.4167696494E+01  2.6663670638E+02  1.2701893900E+02 0. 9.
 1000022    1    4    0    0    0  1.5984750174E+02  2.0755610162E+02 -3.2625377019E+02  4.3783943202E+02  1.2896157000E+02 0. 9.
      24    2    4    0    0    0  2.5452849430E+01  1.2909997114E+02 -4.5760364861E+01  1.6086589784E+02  8.0431188000E+01 0. 9.
       5    1    6    0  102    0 -3.6306048504E-01 -1.0627257541E+02 -6.3547328555E+01  1.2391648423E+02  4.8000000000E+00 0. 9.
      -5    1    6    0    0  102 -1.1068001663E+02 -8.9975390383E+01 -6.2036793882E-01  1.4272022215E+02  4.8000000000E+00 0. 9.
      -1    1    8    0    0  103 -2.2860120334E+01  1.6650383793E+01  4.3495341393E+00  2.8615515535E+01  3.3000000000E-01 0. 9.
       2    1    8    0  103    0  4.8312969763E+01  1.1244958734E+02 -5.0109899001E+01  1.3225038230E+02  3.3000000000E-01 0. 9.
</event>
<event>
    23   276  1.000000E+00  1.033313E+03  7.980251E-03  9.238810E-02
       1   -1    0    0  101    0  0.0000000000E+00  0.0000000000E+00  1.6189964088E+03  1.6189964088E+03  0.0000000000E+00 0. 9.
      -4   -1    0    0    0  101  0.0000000000E+00  0.0000000000E+00 -9.5632230902E+02  9.5632230902E+02  0.0000000000E+00 0. 9.
 2000001    2    1    2  102    0  2.4490897751E+02  1.5643659809E+02  1.0487294009E+03  1.4723335426E+03  9.9170554500E+02 0. 9.
-1000004    2    1    2    0  102 -2.4490897751E+02 -1.5643659809E+02 -3.8605530115E+02  1.1029851752E+03  9.9150632100E+02 0. 9.
 1000021    2    3    0  102  103  9.5621449794E+01  1.5168217657E+02  9.1457910206E+02  1.2715705430E+03  8.6503512500E+02 0. 9.
       1    1    3    0  103    0  1.4928752772E+02  4.7544215158E+00  1.3415029885E+02  2.0076299967E+02  3.3000000000E-01 0. 9.
 1000023    2    4    0    0    0  3.0840242126E+02 -1.3133342251E+02 -3.3341052429E+00  4.2973823887E+02  2.6889276000E+02 0. 9.
      -4    1    4    0    0  102 -5.5331139877E+02 -2.5103175575E+01 -3.8272119590E+02  6.7324693629E+02  1.5000000000E+00 0. 9.
 1000024    2    5    0    0    0  8.4715405912E+01 -1.8605499879E+00  2.0439747694E+02  3.4833678255E+02  2.6903535800E+02 0. 9.
      -6    2    5    0    0  103 -9.1045061820E+01  3.2113132003E+02  3.5336750435E+02  5.1602457413E+02  1.7320000000E+02 0. 9.
       5    1    5    0  102    0  1.0195110570E+02 -1.6758859347E+02  3.5681412077E+02  4.0720918628E+02  4.8000000000E+00 0. 9.
 1000022    1    7    0    0    0  1.3770493490E+02 -1.4072713493E+02  9.4940234991E+00  2.3555890690E+02  1.2896157000E+02 0. 9.
      23    2    7    0    0    0  1.7069748635E+02  9.3937124190E+00 -1.2828128742E+01  1.9417933196E+02  9.1187600000E+01 0. 9.
 1000022    1    9    0    0    0  3.7924309140E+01  1.9392210676E+01  1.5501419422E+01  1.3669561661E+02  1.2896157000E+02 0. 9.
      24    2    9    0    0    0  4.6791096772E+01 -2.1252760664E+01  1.8889605752E+02  2.1164116595E+02  8.0431188000E+01 0. 9.
     -24    2   10    0    0    0 -1.0850788054E+01  2.1838728883E+02  2.8707701479E+02  3.6972034830E+02  8.0431188000E+01 0. 9.
      -5    1   10    0    0  103 -8.0194273766E+01  1.0274403119E+02  6.6290489554E+01  1.4630422583E+02  4.8000000000E+00 0. 9.
       3    1   13    0  104    0  1.0600887482E+02 -3.9002244971E+01 -6.6107571817E+00  1.1315038119E+02  5.0000000000E-01 0. 9.
      -3    1   13    0    0  104  6.4688611536E+01  4.8395957390E+01 -6.2173715603E+00  8.1028950773E+01  5.0000000000E-01 0. 9.
     -13    1   15    0    0    0  6.2180151410E+01 -2.4714934500E+01  9.3650725021E+01  1.1509851727E+02  1.0566000000E-01 0. 9.
      14    1   15    0    0    0 -1.5389054639E+01  3.4621738360E+00  9.5245332502E+01  9.6542648678E+01  0.0000000000E+00 0. 9.
       3    1   16    0  105    0 -1.4337933286E+01  4.1333166667E+01  1.1394719723E+02  1.2205826787E+02  5.0000000000E-01 0. 9.
      -4    1   16    0    0  105  3.4871452325E+00  1.7705412217E+02  1.7312981756E+02  2.4766208043E+02  1.5000000000E+00 0. 9.
</event>
<event>
    14   248  1.000000E+00  7.495771E+02  7.950927E-03  9.585701E-02
      -1   -1    0    0    0  101  0.0000000000E+00  0.0000000000E+00  5.6001314044E+02  5.6001314044E+02  0.0000000000E+00 0. 9.
      21   -1    0    0  101  102  0.0000000000E+00  0.0000000000E+00 -8.2657768658E+02  8.2657768658E+02  0.0000000000E+00 0. 9.
-1000001    2    1    2    0  102 -1.3222739370E+02 -1.1787632212E+02 -3.2156310538E+02  1.0599303475E+03  9.9431916400E+02 0. 9.
 1000023    2    1    2    0    0  1.3222739370E+02  1.1787632212E+02  5.4998559246E+01  3.2666047949E+02  2.6889276000E+02 0. 9.
 1000024    2    3    0    0    0 -4.4041080625E+02  6.9963496446E+01  7.2201484837E+01  5.2578479187E+02  2.6903535800E+02 0. 9.
      -2    1    3    0    0  102  3.0818341255E+02 -1.8783981857E+02 -3.9376459022E+02  5.3414555565E+02  3.3000000000E-01 0. 9.
 1000022    1    4    0    0    0  9.3098429845E+01  4.5259048494E+01  5.7806480809E+01  1.7518097748E+02  1.2896157000E+02 0. 9.
      25    2    4    0    0    0  3.9128963857E+01  7.2617273629E+01 -2.8079215636E+00  1.5147950201E+02  1.2701893900E+02 0. 9.
 1000022    1    5    0    0    0 -3.2915802132E+02  4.2720612550E+00  1.0755338615E+02  3.6954305692E+02  1.2896157000E+02 0. 9.
      24    2    5    0    0    0 -1.1125278493E+02  6.5691435191E+01 -3.5351901313E+01  1.5624173496E+02  8.0431188000E+01 0. 9.
       4    1    8    0  103    0  3.2742256970E+01  7.9876019926E+01  4.8648073878E+01  9.9101559235E+01  1.5000000000E+00 0. 9.
      -4    1    8    0    0  103  6.3867068864E+00 -7.2587462977E+00 -5.1455995442E+01  5.2377942777E+01  1.5000000000E+00 0. 9.
      -1    1   10    0    0  104 -6.6250741874E+01  8.0748419888E+01 -1.9847888184E+01  1.0631799320E+02  3.3000000000E-01 0. 9.
       2    1   10    0  104    0 -4.5002043061E+01 -1.5056984697E+01 -1.5504013129E+01  4.9923741756E+01  3.3000000000E-01 0. 9.
</event>
<event>
    12   230  1.000000E+00  3.721181E+02  7.887699E-03  1.044091E-01
       2   -1    0    0  101    0  0.0000000000E+00  0.0000000000E+00  5.8077912214E+02  5.8077912214E+02  0.0000000000E+00 0. 9.
      -1   -1    0    0    0  101  0.0000000000E+00  0.0000000000E+00 -3.2751153824E+02  3.2751153824E+02  0.0000000000E+00 0. 9.
 1000024    2    1    2    0    0 -1.9803139969E+02 -1.6405410997E+02 -1.1021212034E+02  3.8814549023E+02  2.6903535800E+02 0. 9.
 1000023    2    1    2    0    0  1.9803139969E+02  1.6405410997E+02  3.6347970423E+02  5.2014517015E+02  2.6889276000E+02 0. 9.
 1000022    1    3    0    0    0 -1.5048410570E+02 -5.0526650534E+01 -2.1704175576E-01  2.0452271787E+02  1.2896157000E+02 0. 9.
      24    2    3    0    0    0 -4.7547293992E+01 -1.1352745944E+02 -1.0999507858E+02  1.8362277236E+02  8.0431188000E+01 0. 9.
 1000022    1    4    0    0    0  6.5229889093E+01  9.9035838196E+01  1.9863721413E+02  2.6486008581E+02  1.2896157000E+02 0. 9.
      25    2    4    0    0    0  1.3280151060E+02  6.5018271779E+01  1.6484249010E+02  2.5528508435E+02  1.2701893900E+02 0. 9.
      -3    1    6    0    0  102  3.2214500675E+00 -9.1520356819E+01 -6.4960537102E+01  1.1227855910E+02  5.0000000000E-01 0. 9.
       2    1    6    0  102    0 -5.0768744059E+01 -2.2007102621E+01 -4.5034541479E+01  7.1344213258E+01  3.3000000000E-01 0. 9.
       5    1    8    0  103    0  5.2377893636E+00  4.5576230456E+01  3.0282402864E-01  4.6127637295E+01  4.8000000000E+00 0. 9.
      -5    1    8    0    0  103  1.2756372124E+02  1.9442041323E+01  1.6453966607E+02  2.0915744705E+02  4.8000000000E+00 0. 9.
</event>
<event>
    12   230  1.000000E+00  3.197366E+02  7.874134E-03  1.064669E-01
       2   -1    0    0  101    0  0.0000000000E+00  0.0000000000E+00  1.1747438611E+03  1.1747438611E+03  0.0000000000E+00 0. 9.
      -1   -1    0    0    0  101  0.0000000000E+00  0.0000000000E+00 -8.7118003956E+01  8.7118003956E+01  0.0000000000E+00 0. 9.
 1000024    2    1    2    0    0  1.5646904874E+02 -7.3533937725E+01  5.6458752077E+02  6.4886739452E+02  2.6903535800E+02 0. 9.
 1000023    2    1    2    0    0 -1.5646904874E+02  7.3533937725E+01  5.2303833640E+02  6.1299447056E+02  2.6889276000E+02 0. 9.
 1000022    1    3    0    0    0  5.1427980180E+01  1.6393784323E+01  1.5282812877E+02  2.0712584771E+02  1.2896157000E+02 0. 9.
      24    2    3    0    0    0  1.0504106856E+02 -8.9927722048E+01  4.1175939199E+02  4.4174154681E+02  8.0431188000E+01 0. 9.
 1000022    1    4    0    0    0 -5.1715295916E+01  7.0938410433E+00  2.7203221769E+02  3.0554444588E+02  1.2896157000E+02 0. 9.
      25    2    4    0    0    0 -1.0475375283E+02  6.6440096682E+01  2.5100611871E+02  3.0745002468E+02  1.2701893900E+02 0. 9.
      -1    1    6    0    0  102  3.4551909127E+00  1.3143813255E+01  5.7018895439E+01  5.8617075228E+01  3.3000000000E-01 0. 9.
       2    1    6    0  102    0  1.0158587765E+02 -1.0307153530E+02  3.5474049655E+02  3.8312447158E+02  3.3000000000E-01 0. 9.
       5    1    8    0  103    0 -1.1821109168E+02  9.6803346215E+00  1.7648723571E+02  2.1269310154E+02  4.8000000000E+00 0. 9.
      -5    1    8    0    0  103  1.3457338855E+01  5.6759762061E+01  7.4518883003E+01  9.4756923136E+01  4.8000000000E+00 0. 9.
</event>
<event>
    12   226  1.000000E+00  2.877558E+02  7.864738E-03  1.079447E-01
      -1   -1    0    0    0  101  0.0000000000E+00  0.0000000000E+00  8.5436227753E+01  8.5436227753E+01  0.0000000000E+00 0. 9.
       1   -1    0    0  101    0  0.0000000000E+00  0.0000000000E+00 -9.7516942312E+02  9.7516942312E+02  0.0000000000E+00 0. 9.
 1000024    2    1    2    0    0  3.4150922564E+01 -9.6213802049E+01 -4.0331958746E+02  4.9544938662E+02  2.6903535800E+02 0. 9.
-1000024    2    1    2    0    0 -3.4150922564E+01  9.6213802049E+01 -4.8641360791E+02  5.6515626426E+02  2.6903535800E+02 0. 9.
 1000022    1    3    0    0    0  2.3634264152E+01  3.2906177085E+01 -1.8318528763E+02  2.2766056109E+02  1.2896157000E+02 0. 9.
      24    2    3    0    0    0  1.0516658412E+01 -1.2911997913E+02 -2.2013429983E+02  2.6778882553E+02  8.0431188000E+01 0. 9.
 1000022    1    4    0    0    0  3.5066729584E+01  1.1910050266E+02 -3.1262811775E+02  3.6025273323E+02  1.2896157000E+02 0. 9.
     -24    2    4    0    0    0 -6.9217652148E+01 -2.2886700608E+01 -1.7378549016E+02  2.0490353103E+02  8.0431188000E+01 0. 9.
      -1    1    6    0    0  102  1.9272876866E+01 -9.4371328025E+01 -8.6589415639E+01  1.2951921532E+02  3.3000000000E-01 0. 9.
       2    1    6    0  102    0 -8.7562184536E+00 -3.4748651109E+01 -1.3354488419E+02  1.3826961021E+02  3.3000000000E-01 0. 9.
      11    1    8    0    0    0 -4.0891889065E+01 -8.3138010955E+00 -1.7239372055E+01  4.5149328113E+01  5.1000000000E-04 0. 9.
     -12    1    8    0    0    0 -2.8325763083E+01 -1.4572899513E+01 -1.5654611811E+02  1.5975420291E+02  0.0000000000E+00 0. 9.
</event>
<event>
    12   226  1.000000E+00  3.858090E+02  7.890937E-03  1.039307E-01
       1   -1    0    0  101    0  0.0000000000E+00  0.0000000000E+00  4.7501738422E+02  4.7501738422E+02  0.0000000000E+00 0. 9.
      -1   -1    0    0    0  101  0.0000000000E+00  0.0000000000E+00 -3.2977746825E+02  3.2977746825E+02  0.0000000000E+00 0. 9.
-1000024    2    1    2    0    0 -5.5400263263E+01 -2.7092323414E+02  1.6242004161E+02  4.1860348988E+02  2.6903535800E+02 0. 9.
 1000024    2    1    2    0    0  5.5400263263E+01  2.7092323414E+02 -1.7180125641E+01  3.8619136259E+02  2.6903535800E+02 0. 9.
 1000022    1    3    0    0    0 -4.0139243551E+01 -1.6734845061E+02  1.8619484654E+02  2.8445785313E+02  1.2896157000E+02 0. 9.
     -24    2    3    0    0    0 -1.5261019712E+01 -1.0357478353E+02 -2.3774804923E+01  1.3414563675E+02  8.0431188000E+01 0. 9.
 1000022    1    4    0    0    0  4.4995451975E+00  4.0595141699E+01 -2.1269737502E+01  1.3693684569E+02  1.2896157000E+02 0. 9.
      24    2    4    0    0    0  5.0900718066E+01  2.3032809244E+02  4.0896118613E+00  2.4925451690E+02  8.0431188000E+01 0. 9.
       1    1    6    0  102    0  1.7921786451E+01  1.2138700743E+00  8.0887830806E+00  1.9702822688E+01  3.3000000000E-01 0. 9.
      -2    1    6    0    0  102 -3.3182806164E+01 -1.0478865361E+02 -3.1863588004E+01  1.1444281406E+02  3.3000000000E-01 0. 9.
      -3    1    8    0    0  103  2.7114339274E+01  9.8047733304E+01  4.1293245036E+01  1.0979037975E+02  5.0000000000E-01 0. 9.
       4    1    8    0  103    0  2.3786378792E+01  1.3228035914E+02 -3.7203633175E+01  1.3946413715E+02  1.5000000000E+00 0. 9.
</event>
<event>
    12   226  1.000000E+00  2.734217E+02  7.860191E-03  1.086761E-01
      -1   -1    0    0    0  101  0.0000000000E+00  0.0000000000E+00  1.0410145707E+02  1.0410145707E+02  0.0000000000E+00 0. 9.
       1   -1    0    0  101    0  0.0000000000E+00  0.0000000000E+00 -7.1960121413E+02  7.1960121413E+02  0.0000000000E+00 0. 9.
 1000024    2    1    2    0    0  1.8731994428E+01  4.5038784062E+01 -2.8918998380E+02  3.9798272609E+02  2.6903535800E+02 0. 9.
-1000024    2    1    2    0    0 -1.8731994428E+01 -4.5038784062E+01 -3.2630977326E+02  4.2571994511E+02  2.6903535800E+02 0. 9.
 1000022    1    3    0    0    0  2.3354563588E+01  1.0879987998E+02 -1.8996951344E+02  2.5515162570E+02  1.2896157000E+02 0. 9.
      24    2    3    0    0    0 -4.6225691605E+00 -6.3761095917E+01 -9.9220470354E+01  1.4283110039E+02  8.0431188000E+01 0. 9.
 1000022    1    4    0    0    0 -1.7724202318E+01 -1.0601194984E+02 -2.4015184214E+02  2.9301309643E+02  1.2896157000E+02 0. 9.
     -24    2    4    0    0    0 -1.0077921102E+00  6.0973165776E+01 -8.6157931115E+01  1.3270684868E+02  8.0431188000E+01 0. 9.
     -13    1    6    0    0    0  2.0492412047E+01 -5.0433319129E+01 -1.8897596720E+01  5.7624551675E+01  1.0566000000E-01 0. 9.
      14    1    6    0    0    0 -2.5114981208E+01 -1.3327776788E+01 -8.0322873634E+01  8.5206548715E+01  0.0000000000E+00 0. 9.
      13    1    8    0    0    0 -1.4651604602E+01  3.4695707186E+01 -9.4680406811E+01  1.0189628164E+02  1.0566000000E-01 0. 9.
     -14    1    8    0    0    0  1.3643812491E+01  2.6277458590E+01  8.5224756962E+00  3.0810567039E+01  0.0000000000E+00 0. 9.
</event>
<event>
    14   244  1.000000E+00  8.771957E+02  7.965262E-03  9.412611E-02
      21   -1    0    0  101  102  0.0000000000E+00  0.0000000000E+00  4.6667415543E+02  4.6667415543E+02  0.0000000000E+00 0. 9.
      21   -1    0    0  103  104  0.0000000000E+00  0.0000000000E+00 -1.6500628411E+03  1.6500628411E+03  0.0000000000E+00 0. 9.
 1000021    2    1    2  101  104 -7.3283571599E+01 -1.2576164684E+02 -6.2047524440E+02  1.0744588266E+03  8.6503512500E+02 0. 9.
 1000021    2    1    2  103  102  7.3283571599E+01  1.2576164684E+02 -5.6291344132E+02  1.0422781700E+03  8.6503512500E+02 0. 9.
 1000024    2    3    0    0    0 -2.6611642493E+02 -7.5348454834E+01 -4.8281929186E+02  6.1805326123E+02  2.6903535800E+02 0. 9.
      -2    1    3    0    0  104 -8.2153200908E+01 -1.2558569503E+02 -4.8561315913E+01  1.5773149818E+02  3.3000000000E-01 0. 9.
       1    1    3    0  101    0  2.7498605424E+02  7.5172503032E+01 -8.9094636625E+01  2.9867406720E+02  3.3000000000E-01 0. 9.
 1000022    1    4    0    0    0  3.5896563651E+02  1.9884105265E+02 -7.9072959843E+01  4.3735307468E+02  1.2896157000E+02 0. 9.
       2    1    4    0  103    0 -1.9287813564E+02 -5.4384713730E+00 -1.2935572423E+02  2.3230274314E+02  3.3000000000E-01 0. 9.
      -2    1    4    0    0  102 -9.2803929274E+01 -6.7640934442E+01 -3.5448475725E+02  3.7262235215E+02  3.3000000000E-01 0. 9.
 1000022    1    5    0    0    0 -2.3307041964E+02 -7.0059274586E+01 -4.4442339824E+02  5.2285118907E+02  1.2896157000E+02 0. 9.
      24    2    5    0    0    0 -3.3046005296E+01 -5.2891802485E+00 -3.8395893618E+01  9.5202072160E+01  8.0431188000E+01 0. 9.
      -3    1   12    0    0  105  2.9955802510E-01 -1.5720529801E+01 -5.4482605867E+01  5.6708281002E+01  5.0000000000E-01 0. 9.
       4    1   12    0  105    0 -3.3345563322E+01  1.0431349553E+01  1.6086712249E+01  3.8493791158E+01  1.5000000000E+00 0. 9.
</event>
<event>
    12   230  1.000000E+00  3.199471E+02  7.874193E-03  1.064578E-01
       1   -1    0    0  101    0  0.0000000000E+00  0.0000000000E+00  6.1784624353E+02  6.1784624353E+02  0.0000000000E+00 0. 9.
      -2   -1    0    0    0  101  0.0000000000E+00  0.0000000000E+00 -4.4563905371E+02  4.4563905371E+02  0.0000000000E+00 0. 9.
 1000023    2    1    2    0    0 -4.4727784059E+01 -1.6740340217E+02 -3.3536147036E+02  4.6345992913E+02  2.6889276000E+02 0. 9.
-1000024    2    1    2    0    0  4.4727784059E+01  1.6740340217E+02  5.0756866018E+02  6.0002536811E+02  2.6903535800E+02 0. 9.
 1000022    1    3    0    0    0 -5.5980699677E+01 -6.3157495964E+01 -1.8098884259E+02  2.3771991021E+02  1.2896157000E+02 0. 9.
      25    2    3    0    0    0  1.1252915617E+01 -1.0424590621E+02 -1.5437262777E+02  2.2574001892E+02  1.2701893900E+02 0. 9.
 1000022    1    4    0    0    0 -4.4635130787E-01  4.5360719377E+01  3.6939145745E+02  3.9387679478E+02  1.2896157000E+02 0. 9.
     -24    2    4    0    0    0  4.5174135367E+01  1.2204268279E+02  1.3817720274E+02  2.0614857334E+02  8.0431188000E+01 0. 9.
       5    1    6    0  102    0 -3.5128200469E+01 -2.4681144191E+00 -8.9623724488E+01  9.6413349947E+01  4.8000000000E+00 0. 9.
      -5    1    6    0    0  102  4.6381116086E+01 -1.0177779179E+02 -6.4748903287E+01  1.2932666897E+02  4.8000000000E+00 0. 9.
       1    1    8    0  103    0  6.8484567947E+01  8.4817873620E+01  9.6161980093E+01  1.4536658161E+02  3.3000000000E-01 0. 9.
      -2    1    8    0    0  103 -2.3310432579E+01  3.7224809173E+01  4.2015222643E+01  6.0781991731E+01  3.3000000000E-01 0. 9.
</event>
<event>
    12   226  1.000000E+00  2.897118E+02  7.865342E-03  1.078485E-01
       2   -1    0    0  101    0  0.0000000000E+00  0.0000000000E+00  2.0761167125E+03  2.0761167125E+03  0.0000000000E+00 0. 9.
      -2   -1    0    0    0  101  0.0000000000E+00  0.0000000000E+00 -4.1918639443E+01  4.1918639443E+01  0.0000000000E+00 0. 9.
 1000024    2    1    2    0    0 -4.5331122249E+01 -9.7457654923E+01  1.2168128928E+03  1.2508263449E+03  2.6903535800E+02 0. 9.
-1000024    2    1    2    0    0  4.5331122249E+01  9.7457654923E+01  8.1738518030E+02  8.6720900709E+02  2.6903535800E+02 0. 9.
 1000022    1    3    0    0    0 -3.7680226534E+01 -1.0984604742E+02  1.0587590850E+03  1.0728876176E+03  1.2896157000E+02 0. 9.
      24    2    3    0    0    0 -7.6508957143E+00  1.2388392495E+01  1.5805380781E+02  1.7793872721E+02  8.0431188000E+01 0. 9.
 1000022    1    4    0    0    0  1.0048118461E+01  1.2949248447E+02  6.5227336239E+02  6.7746652614E+02  1.2896157000E+02 0. 9.
     -24    2    4    0    0    0  3.5283003788E+01 -3.2034829545E+01  1.6511181791E+02  1.8974248095E+02  8.0431188000E+01 0. 9.
     -11    1    6    0    0    0 -5.8639839720E+00 -1.7176442859E+01  1.0658269328E+00  1.8181102404E+01  5.1000000000E-04 0. 9.
      12    1    6    0    0    0 -1.7869117422E+00  2.9564835353E+01  1.5698798088E+02  1.5975762480E+02  0.0000000000E+00 0. 9.
      15    1    8    0    0    0 -2.3402759641E-01  2.2597165120E+01  1.8348371265E+01  2.9163454827E+01  1.7770000000E+00 0. 9.
     -16    1    8    0    0    0  3.5517031384E+01 -5.4631994665E+01  1.4676344664E+02  1.6057902612E+02  0.0000000000E+00 0. 9.
</event>
<event>
    26   271  1.000000E+00  1.350175E+03  8.004848E-03  8.968399E-02
       2   -1    0    0  101    0  0.0000000000E+00  0.0000000000E+00  1.6671452870E+03  1.6671452870E+03  0.0000000000E+00 0. 9.
       2   -1    0    0  102    0  0.0000000000E+00  0.0000000000E+00 -1.0935268868E+03  1.0935268868E+03  0.0000000000E+00 0. 9.
 1000002    2    1    2  102    0 -4.1574323984E+02 -8.1672854654E+02  2.9679707811E+02  1.3824113897E+03  9.9150632100E+02 0. 9.
 1000002    2    1    2  101    0  4.1574323984E+02  8.1672854654E+02  2.7682132211E+02  1.3782607842E+03  9.9150632100E+02 0. 9.
 1000021    2    3    0  102  103 -4.7877563256E+02 -6.8110615202E+02  2.6680139157E+02  1.2298782243E+03  8.6503512500E+02 0. 9.
       2    1    3    0  103    0  6.3032392714E+01 -1.3562239452E+02  2.9995686539E+01  1.5253316537E+02  3.3000000000E-01 0. 9.
 1000021    2    4    0  101  104  4.5911871531E+02  8.3994519895E+02  2.9886283435E+02  1.3243499134E+03  8.6503512500E+02 0. 9.
       2    1    4    0  104    0 -4.3375475463E+01 -2.3216652409E+01 -2.2041512239E+01  5.3910870727E+01  3.3000000000E-01 0. 9.
-1000024    2    5    0    0    0 -1.7131921707E+02 -3.9837482482E+02  3.0820689258E+02  5.9617471237E+02  2.6903535800E+02 0. 9.
       6    2    5    0  102    0 -2.3248827717E+02 -2.1554700862E+01  1.2345821808E+02  3.1584106092E+02  1.7320000000E+02 0. 9.
      -5    1    5    0    0  103 -7.4968138322E+01 -2.6117662634E+02 -1.6486371909E+02  3.1786245104E+02  4.8000000000E+00 0. 9.
 1000023    2    7    0    0    0  2.3691591852E+02  9.1821859546E+02  3.0184561779E+02  1.0308582031E+03  2.6889276000E+02 0. 9.
       2    1    7    0  101    0  1.2146505237E+02  4.2801251317E+01  3.0773874248E+01  1.3241165469E+02  3.3000000000E-01 0. 9.
      -2    1    7    0    0  104  1.0073774442E+02 -1.2107464783E+02 -3.3756657688E+01  1.6108005567E+02  3.3000000000E-01 0. 9.
 1000022    1    9    0    0    0 -6.7035836970E+01 -2.5314699470E+02  2.6751882344E+02  3.9594773872E+02  1.2896157000E+02 0. 9.
     -24    2    9    0    0    0 -1.0428338010E+02 -1.4522783011E+02  4.0688069137E+01  2.0022697365E+02  8.0431188000E+01 0. 9.
      24    2   10    0    0    0 -1.6343293354E+02 -1.8728546083E+01  1.5482283780E+02  2.3979234624E+02  8.0431188000E+01 0. 9.
       5    1   10    0  102    0 -6.9055343626E+01 -2.8261547796E+00 -3.1364619725E+01  7.6048714681E+01  4.8000000000E+00 0. 9.
 1000022    1   12    0    0    0  1.3698728368E+02  5.7838766693E+02  2.1063204481E+02  6.4365732653E+02  1.2896157000E+02 0. 9.
      25    2   12    0    0    0  9.9928634849E+01  3.3983092852E+02  9.1213572980E+01  3.8720087655E+02  1.2701893900E+02 0. 9.
       1    1   16    0  105    0 -3.4095889733E+01  6.4448612556E-01  9.0552147535E+00  3.5285278422E+01  3.3000000000E-01 0. 9.
      -2    1   16    0    0  105 -7.0187490366E+01 -1.4587231624E+02  3.1632854383E+01  1.6494169523E+02  3.3000000000E-01 0. 9.
      -1    1   17    0    0  106 -1.3172107733E+02 -8.6060676116E+00  7.1626912476E+01  1.5018332166E+02  3.3000000000E-01 0. 9.
       2    1   17    0  106    0 -3.1711856210E+01 -1.0122478471E+01  8.3195925328E+01  8.9609024578E+01  3.3000000000E-01 0. 9.
     -15    1   20    0    0    0  1.1635385940E+02  2.8184586709E+02  3.8934885060E+01  3.0739940858E+02  1.7770000000E+00 0. 9.
      15    1   20    0    0    0 -1.6425224549E+01  5.7985061432E+01  5.2278687920E+01  7.9801467972E+01  1.7770000000E+00 0. 9.
</event>
<event>
    24   259  1.000000E+00  1.221146E+03  7.995593E-03  9.068073E-02
      21   -1    0    0  101  102  0.0000000000E+00  0.0000000000E+00  7.6488041155E+02  7.6488041155E+02  0.0000000000E+00 0. 9.
       1   -1    0    0  102    0  0.0000000000E+00  0.0000000000E+00 -1.9561277371E+03  1.9561277371E+03  0.0000000000E+00 0. 9.
 1000021    2    1    2  101  103  4.8701205552E+02 -6.2300356527E+02 -6.6736132923E+02  1.3486923651E+03  8.6503512500E+02 0. 9.
 2000001    2    1    2  103    0 -4.8701205552E+02  6.2300356527E+02 -5.2388599633E+02  1.3723157835E+03  9.9170554500E+02 0. 9.
-1000024    2    3    0    0    0  2.6879985054E+02  1.0748295814E+01 -2.1077223836E+01  3.8104220072E+02  2.6903535800E+02 0. 9.
       6    2    3    0  101    0  6.6224141632E+01 -3.8839542032E+02 -4.1327263854E+02  5.9668178556E+02  1.7320000000E+02 0. 9.
      -5    1    3    0    0  103  1.5198806335E+02 -2.4535644077E+02 -2.3301146686E+02  3.7096837886E+02  4.8000000000E+00 0. 9.
 1000021    2    4    0  103  104 -3.7710433023E+02  5.7397493464E+02 -5.7063427928E+02  1.2432072030E+03  8.6503512500E+02 0. 9.
       1    1    4    0  104    0 -1.0990772529E+02  4.9028630631E+01  4.6748282946E+01  1.2910858050E+02  3.3000000000E-01 0. 9.
 1000022    1    5    0    0    0  1.9833301878E+02  2.8805689072E+01  5.9857738174E+01  2.4572299326E+02  1.2896157000E+02 0. 9.
     -24    2    5    0    0    0  7.0466831763E+01 -1.8057393258E+01 -8.0934962011E+01  1.3531920746E+02  8.0431188000E+01 0. 9.
      24    2    6    0    0    0  5.5425830227E+01 -1.9688512871E+02 -1.3258022117E+02  2.5667580255E+02  8.0431188000E+01 0. 9.
       5    1    6    0  101    0  1.0798311405E+01 -1.9151029160E+02 -2.8069241736E+02  3.4000598301E+02  4.8000000000E+00 0. 9.
 1000024    2    8    0    0    0 -6.6512348643E+01  1.4787587465E+02  3.6369178290E+01  3.1621813327E+02  2.6903535800E+02 0. 9.
      -2    1    8    0    0  104 -2.1928209077E+02  4.0303939769E+02 -1.8519602851E+02  4.9479598756E+02  3.3000000000E-01 0. 9.
       1    1    8    0  103    0 -9.1309890823E+01  2.3059662288E+01 -4.2180742906E+02  4.3219308219E+02  3.3000000000E-01 0. 9.
       3    1   11    0  105    0  5.0746943975E+01 -3.9235548104E+01 -8.4536742764E+01  1.0611970333E+02  5.0000000000E-01 0. 9.
      -4    1   11    0    0  105  1.9719887788E+01  2.1178154846E+01  3.6017807535E+00  2.9199504133E+01  1.5000000000E+00 0. 9.
     -11    1   12    0    0    0  2.4103369774E+01 -8.8688427207E+01 -1.3723610310E+01  9.2924415710E+01  5.1000000000E-04 0. 9.
      12    1   12    0    0    0  3.1322460453E+01 -1.0819670151E+02 -1.1885661086E+02  1.6375138684E+02  0.0000000000E+00 0. 9.
 1000022    1   14    0    0    0  1.1850754434E+01  1.2964647093E+02 -2.8203918373E+01  1.8540548901E+02  1.2896157000E+02 0. 9.
      24    2   14    0    0    0 -7.8363103078E+01  1.8229403724E+01  6.4573096663E+01  1.3081264427E+02  8.0431188000E+01 0. 9.
     -13    1   22    0    0    0 -3.5016418144E+00  1.1980044851E+01  5.3430336291E+01  5.4868888911E+01  1.0566000000E-01 0. 9.
      14    1   22    0    0    0 -7.4861461263E+01  6.2493588726E+00  1.1142760372E+01  7.5943755355E+01  0.0000000000E+00 0. 9.
</event>
<event>
    27   273  1.000000E+00  1.117683E+03  7.987453E-03  9.157782E-02
       2   -1    0    0  101    0  0.0000000000E+00  0.0000000000E+00  8.8386752483E+02  8.8386752483E+02  0.0000000000E+00 0. 9.
       2   -1    0    0  102    0  0.0000000000E+00  0.0000000000E+00 -1.4635795029E+03  1.4635795029E+03  0.0000000000E+00 0. 9.
 1000002    2    1    2  102    0 -3.4195221648E+02 -3.8652789771E+02 -7.2440992578E+01  1.1201194651E+03  9.9150632100E+02 0. 9.
 2000002    2    1    2  101    0  3.4195221648E+02  3.8652789771E+02 -5.0727098545E+02  1.2273275626E+03  9.9129912700E+02 0. 9.
 1000024    2    3    0    0    0 -4.1707971547E+02 -1.4792199166E+02  3.5287813205E+02  6.2668924086E+02  2.6903535800E+02 0. 9.
       1    1    3    0  102    0  7.5127498995E+01 -2.3860590605E+02 -4.2531912462E+02  4.9343022422E+02  3.3000000000E-01 0. 9.
 1000021    2    4    0  101  103  2.0770872912E+02  3.1195331631E+02 -5.1373746880E+02  1.0736245815E+03  8.6503512500E+02 0. 9.
       2    1    4    0  103    0  1.3424348735E+02  7.4574581397E+01  6.4664833515E+00  1.5370298108E+02  3.3000000000E-01 0. 9.
 1000022    1    5    0    0    0 -2.6569687913E+02 -3.1136392538E+01  1.3615945783E+02  3.2670290941E+02  1.2896157000E+02 0. 9.
      24    2    5    0    0    0 -1.5138283634E+02 -1.1678559912E+02  2.1671867421E+02  2.9998633145E+02  8.0431188000E+01 0. 9.
 1000023    2    7    0    0    0  2.5190042310E+02  3.3040224457E+02 -7.0625011336E+01  4.9991066700E+02  2.6889276000E+02 0. 9.
       6    2    7    0  101    0 -4.5693521184E+01  3.3188450204E+01 -1.9641264666E+02  2.6789090853E+02  1.7320000000E+02 0. 9.
      -6    2    7    0    0  103  1.5018272107E+00 -5.1637378468E+01 -2.4669981081E+02  3.0582300599E+02  1.7320000000E+02 0. 9.
      -3    1   10    0    0  104 -1.3153174450E+02 -7.8703475298E+01  1.2175740910E+02  1.9575483010E+02  5.0000000000E-01 0. 9.
       4    1   10    0  104    0 -1.9851091834E+01 -3.8082123825E+01  9.4961265109E+01  1.0423150135E+02  1.5000000000E+00 0. 9.
 1000022    1   11    0    0    0  7.7215878723E+01  8.2094425806E+01 -6.4028914456E+01  1.8284576861E+02  1.2896157000E+02 0. 9.
      23    2   11    0    0    0  1.7468454437E+02  2.4830781877E+02 -6.5960968796E+00  3.1706489839E+02  9.1187600000E+01 0. 9.
      24    2   12    0    0    0 -8.2840065491E+00 -2.0870605332E+01 -2.9718397312E+01  8.8637272484E+01  8.0431188000E+01 0. 9.
       5    1   12    0  101    0 -3.7409514634E+01  5.4059055536E+01 -1.6669424934E+02  1.7925363604E+02  4.8000000000E+00 0. 9.
     -24    2   13    0    0    0  4.9085916737E+01  5.6644253808E+00 -8.2150559398E+01  1.2513753773E+02  8.0431188000E+01 0. 9.
      -5    1   13    0    0  103 -4.7584089526E+01 -5.7301803849E+01 -1.6454925141E+02  1.8068546826E+02  4.8000000000E+00 0. 9.
       5    1   17    0  105    0  1.7217661308E+02  2.2824937031E+02 -2.7902891516E+01  2.8730501647E+02  4.8000000000E+00 0. 9.
      -5    1   17    0    0  105  2.5079312953E+00  2.0058448462E+01  2.1306794636E+01  2.9759881918E+01  4.8000000000E+00 0. 9.
     -15    1   18    0    0    0  3.1538148579E+01 -1.2770265371E+00 -3.0945660098E+01  4.4238865497E+01  1.7770000000E+00 0. 9.
      16    1   18    0    0    0 -3.9822155128E+01 -1.9593578795E+01  1.2272627851E+00  4.4398406987E+01  0.0000000000E+00 0. 9.
       1    1   20    0  106    0  4.0807387296E+01  1.8497848433E+01 -9.5090712433E+01  1.0511786597E+02  3.3000000000E-01 0. 9.
      -2    1   20    0    0  106  8.2785294411E+00 -1.2833423052E+01  1.2940153035E+01  2.0019671763E+01  3.3000000000E-01 0. 9.
</event>
<event>
    12   230  1.000000E+00  5.766194E+02  7.927124E-03  9.889126E-02
      -1   -1    0    0    0  101  0.0000000000E+00  0.0000000000E+00  7.8662316908E+02  7.8662316908E+02  0.0000000000E+00 0. 9.
       2   -1    0    0  101    0  0.0000000000E+00  0.0000000000E+00 -6.9749220426E+02  6.9749220426E+02  0.0000000000E+00 0. 9.
 1000023    2    1    2    0    0  5.0578080298E+02 -6.5833345618E+01  5.1034941794E+02  7.7000525637E+02  2.6889276000E+02 0. 9.
 1000024    2    1    2    0    0 -5.0578080298E+02  6.5833345618E+01 -4.2121845311E+02  7.1411011697E+02  2.6903535800E+02 0. 9.
 1000022    1    3    0    0    0  1.7466596211E+02 -3.9583144359E+01  1.8384121448E+02  2.8723457716E+02  1.2896157000E+02 0. 9.
      25    2    3    0    0    0  3.3111484087E+02 -2.6250201259E+01  3.2650820346E+02  4.8277067921E+02  1.2701893900E+02 0. 9.
 1000022    1    4    0    0    0 -2.1353918886E+02  7.7694401556E+00 -1.0060422767E+02  2.6909412209E+02  1.2896157000E+02 0. 9.
      24    2    4    0    0    0 -2.9224161412E+02  5.8063905463E+01 -3.2061422544E+02  4.4501599488E+02  8.0431188000E+01 0. 9.
       5    1    6    0  102    0  2.8444854736E+01  3.4907132673E+01  5.7668027564E+01  7.3322977814E+01  4.8000000000E+00 0. 9.
      -5    1    6    0    0  102  3.0266998614E+02 -6.1157333932E+01  2.6884017589E+02  4.0944770139E+02  4.8000000000E+00 0. 9.
     -11    1    8    0    0    0 -1.6553104424E+02  5.7501106909E+01 -2.3041549404E+02  2.8947919406E+02  5.1000000000E-04 0. 9.
      12    1    8    0    0    0 -1.2671056988E+02  5.6279855339E-01 -9.0198731407E+01  1.5553680082E+02  0.0000000000E+00 0. 9.
</event>
<event>
    20   258  1.000000E+00  1.108176E+03  7.986669E-03  9.166532E-02
      21   -1    0    0  101  102  0.0000000000E+00  0.0000000000E+00  9.4438086200E+02  9.4438086200E+02  0.0000000000E+00 0. 9.
       2   -1    0    0  102    0  0.0000000000E+00  0.0000000000E+00 -1.4292575626E+03  1.4292575626E+03  0.0000000000E+00 0. 9.
 1000021    2    1    2  101  103  5.8383802627E+02  1.4663207604E+02  1.2820823748E+02  1.0616453863E+03  8.6503512500E+02 0. 9.
 1000002    2    1    2  103    0 -5.8383802627E+02 -1.4663207604E+02 -6.1308493809E+02  1.3119930383E+03  9.9150632100E+02 0. 9.
-1000024    2    3    0    0    0 -3.3644918712E+01  6.2393233433E-01  8.6732370042E+01  2.8466629185E+02  2.6903535800E+02 0. 9.
       2    1    3    0  101    0  5.2831690085E+02  7.8405927069E+01  2.1065408260E+02  5.7414413568E+02  3.3000000000E-01 0. 9.
      -1    1    3    0    0  103  8.9166044133E+01  6.7602216639E+01 -1.6917821516E+02  2.0283495879E+02  3.3000000000E-01 0. 9.
 1000021    2    4    0  103  104 -4.2408421936E+02 -1.9668558792E+02 -5.7922152521E+02  1.1411906012E+03  8.6503512500E+02 0. 9.
       2    1    4    0  104    0 -1.5975380691E+02  5.0053511876E+01 -3.3863412886E+01  1.7080243706E+02  3.3000000000E-01 0. 9.
 1000022    1    5    0    0    0  5.8752508436E+01 -1.5115517260E+01  7.3773702703E+01  1.6048047189E+02  1.2896157000E+02 0. 9.
     -24    2    5    0    0    0 -9.2397427148E+01  1.5739449594E+01  1.2958667339E+01  1.2418581996E+02  8.0431188000E+01 0. 9.
 1000023    2    8    0    0    0 -8.1902651895E+01  6.8018568290E+01  3.4249481050E+01  2.9122313327E+02  2.6889276000E+02 0. 9.
       4    1    8    0  103    0 -2.6215347666E+02 -1.7466125500E+02 -6.5147563347E+02  7.2363924046E+02  1.5000000000E+00 0. 9.
      -4    1    8    0    0  104 -8.0028090806E+01 -9.0042901211E+01  3.8004627212E+01  1.2632822751E+02  1.5000000000E+00 0. 9.
       3    1   11    0  105    0 -3.6699640251E+00  3.1421437990E+01  1.2639129757E+01  3.4070118907E+01  5.0000000000E-01 0. 9.
      -4    1   11    0    0  105 -8.8727463123E+01 -1.5681988396E+01  3.1953758169E-01  9.0115701054E+01  1.5000000000E+00 0. 9.
 1000022    1   12    0    0    0  1.4330721780E+01  8.4518248349E+01  2.8835970516E+01  1.5751604243E+02  1.2896157000E+02 0. 9.
      23    2   12    0    0    0 -9.6233373675E+01 -1.6499680058E+01  5.4135105348E+00  1.3370709084E+02  9.1187600000E+01 0. 9.
       4    1   18    0  106    0  1.6178797515E+01  3.6410253611E+00 -8.4223657194E+00  1.8660032128E+01  1.5000000000E+00 0. 9.
      -4    1   18    0    0  106 -1.1241217119E+02 -2.0140705419E+01  1.3835876254E+01  1.1504705871E+02  1.5000000000E+00 0. 9.
</event>
<event>
    12   230  1.000000E+00  2.860766E+02  7.864217E-03  1.080280E-01
      -1   -1    0    0    0  101  0.0000000000E+00  0.0000000000E+00  1.7535462301E+02  1.7535462301E+02  0.0000000000E+00 0. 9.
       2   -1    0    0  101    0  0.0000000000E+00  0.0000000000E+00 -4.8809838261E+02  4.8809838261E+02  0.0000000000E+00 0. 9.
 1000023    2    1    2    0    0  2.2441008743E+01  9.4839761010E+01 -8.6896747883E+01  2.9891895275E+02  2.6889276000E+02 0. 9.
 1000024    2    1    2    0    0 -2.2441008743E+01 -9.4839761010E+01 -2.2584701172E+02  3.6453405286E+02  2.6903535800E+02 0. 9.
 1000022    1    3    0    0    0  4.9783317632E+01  6.0828994903E+01 -5.6226428034E+01  1.6115533836E+02  1.2896157000E+02 0. 9.
      25    2    3    0    0    0 -2.7342308888E+01  3.4010766107E+01 -3.0670319849E+01  1.3776361439E+02  1.2701893900E+02 0. 9.
 1000022    1    4    0    0    0  2.8741428797E+01 -1.2721849659E+02 -1.6615429521E+02  2.4748525604E+02  1.2896157000E+02 0. 9.
      24    2    4    0    0    0 -5.1182437541E+01  3.2378735583E+01 -5.9692716509E+01  1.1704879682E+02  8.0431188000E+01 0. 9.
      21    1    6    0  102  103 -1.7521146981E+01 -3.0899650523E+01 -5.6892547508E+01  6.7071163371E+01  0.0000000000E+00 0. 9.
      21    1    6    0  103  102 -9.8211619072E+00  6.4910416630E+01  2.6222227659E+01  7.0692451023E+01  0.0000000000E+00 0. 9.
      -1    1    8    0    0  104  8.4677624274E+00  2.7762564260E+01  4.4136978312E+00  2.9360732337E+01  3.3000000000E-01 0. 9.
       2    1    8    0  104    0 -5.9650199968E+01  4.6161713231E+00 -6.4106414340E+01  8.7688064487E+01  3.3000000000E-01 0. 9.
</event>
<event>
    12   230  1.000000E+00  3.279882E+02  7.876409E-03  1.061156E-01
       2   -1    0    0  101    0  0.0000000000E+00  0.0000000000E+00  2.9144491863E+03  2.9144491863E+03  0.0000000000E+00 0. 9.
      -1   -1    0    0    0  101  0.0000000000E+00  0.0000000000E+00 -3.8926049637E+01  3.8926049637E+01  0.0000000000E+00 0. 9.
 1000024    2    1    2    0    0 -8.6052744180E+00  1.8751146743E+02  1.7739534081E+03  1.8040302988E+03  2.6903535800E+02 0. 9.
 1000023    2    1    2    0    0  8.6052744180E+00 -1.8751146743E+02  1.1015697286E+03  1.1493449371E+03  2.6889276000E+02 0. 9.
 1000022    1    3    0    0    0 -7.9848950584E+01  1.3117003414E+02  1.2663832146E+03  1.2821618328E+03  1.2896157000E+02 0. 9.
      24    2    3    0    0    0  7.1243676166E+01  5.6341433297E+01  5.0757019347E+02  5.2186846600E+02  8.0431188000E+01 0. 9.
 1000022    1    4    0    0    0  4.2047946993E+01 -8.5731893145E+01  5.9232069130E+02  6.1367163470E+02  1.2896157000E+02 0. 9.
      25    2    4    0    0    0 -3.3442672575E+01 -1.0177957429E+02  5.0924903727E+02  5.3567330241E+02  1.2701893900E+02 0. 9.
      -3    1    6    0    0  102  3.0760472346E+01  1.6827283030E+01  5.1509503152E+01  6.2312462863E+01  5.0000000000E-01 0. 9.
       2    1    6    0  102    0  4.0483203820E+01  3.9514150268E+01  4.5606069032E+02  4.5955600313E+02  3.3000000000E-01 0. 9.
       5    1    8    0  103    0 -8.0653477327E+01 -6.7679968955E+01  3.6848442434E+02  3.8326149374E+02  4.8000000000E+00 0. 9.
      -5    1    8    0    0  103  4.7210804752E+01 -3.4099605334E+01  1.4076461293E+02  1.5241180868E+02  4.8000000000E+00 0. 9.
</event>
<event>
    12   230  1.000000E+00  2.872486E+02  7.864581E-03  1.079698E-01
      -1   -1    0    0    0  101  0.0000000000E+00  0.0000000000E+00  2.5423445676E+02  2.5423445676E+02  0.0000000000E+00 0. 9.
       2   -1    0    0  101    0  0.0000000000E+00  0.0000000000E+00 -3.2661444665E+02  3.2661444665E+02  0.0000000000E+00 0. 9.
 1000023    2    1    2    0    0  6.1280549962E+01 -8.0092396668E+01 -5.9271932854E+01  2.9323467771E+02  2.6889276000E+02 0. 9.
 1000024    2    1    2    0    0 -6.1280549962E+01  8.0092396668E+01 -1.3108057040E+01  2.8761422569E+02  2.6903535800E+02 0. 9.
 1000022    1    3    0    0    0  8.9678545212E+00 -5.2896124759E+01  3.6220010638E+00  1.3972339767E+02  1.2896157000E+02 0. 9.
      25    2    3    0    0    0  5.2312695441E+01 -2.7196271909E+01 -6.2893933918E+01  1.5351128004E+02  1.2701893900E+02 0. 9.
 1000022    1    4    0    0    0 -7.0592732126E+01  9.9416792914E+01  4.8579797143E+01  1.8400574928E+02  1.2896157000E+02 0. 9.
      24    2    4    0    0    0  9.3121821643E+00 -1.9324396246E+01 -6.1687854184E+01  1.0360847641E+02  8.0431188000E+01 0. 9.
      21    1    6    0  102  103 -5.5349206649E-01 -4.4056150998E+01  2.4180600443E+01  5.0258852275E+01  0.0000000000E+00 0. 9.
      21    1    6    0  103  102  5.2866187507E+01  1.6859879090E+01 -8.7074534360E+01  1.0325242776E+02  0.0000000000E+00 0. 9.
      -1    1    8    0    0  104 -5.0492018786E+00  2.1691027321E+01  6.0934309573E+00  2.3091858017E+01  3.3000000000E-01 0. 9.
       2    1    8    0  104    0  1.4361384043E+01 -4.1015423567E+01 -6.7781285141E+01  8.0516618392E+01  3.3000000000E-01 0. 9.
</event>
<event>
    26   273  1.000000E+00  1.445876E+03  8.011171E-03  8.901690E-02
       2   -1    0    0  101    0  0.0000000000E+00  0.0000000000E+00  1.2520333426E+03  1.2520333426E+03  0.0000000000E+00 0. 9.
       2   -1    0    0  102    0  0.0000000000E+00  0.0000000000E+00 -1.7006580353E+03  1.7006580353E+03  0.0000000000E+00 0. 9.
 2000002    2    1    2  101    0 -4.3744186291E+02  9.5724718859E+02 -4.2339621288E+02  1.5065244358E+03  9.9129912700E+02 0. 9.
 1000002    2    1    2  102    0  4.3744186291E+02 -9.5724718859E+02 -2.5228479844E+01  1.4461669420E+03  9.9150632100E+02 0. 9.
 1000021    2    3    0  101  103 -5.1438625415E+02  8.8863478639E+02 -3.9818016988E+02  1.4003921655E+03  8.6503512500E+02 0. 9.
       2    1    3    0  103    0  7.6944391246E+01  6.8612402192E+01 -2.5216043007E+01  1.0613227032E+02  3.3000000000E-01 0. 9.
 1000021    2    4    0  102  104  4.8800962767E+02 -7.9257805674E+02 -5.2509504380E+01  1.2717611365E+03  8.6503512500E+02 0. 9.
       2    1    4    0  104    0 -5.0567764758E+01 -1.6466913184E+02  2.7281024536E+01  1.7440580556E+02  3.3000000000E-01 0. 9.
 1000023    2    5    0    0    0 -6.7234128578E+00  2.3832009593E+02 -3.6240737869E+02  5.1037642668E+02  2.6889276000E+02 0. 9.
       4    1    5    0  101    0 -3.3997004639E+02  3.4551042583E+02  1.3400311350E+02  5.0290771642E+02  1.5000000000E+00 0. 9.
      -4    1    5    0    0  103 -1.6769279491E+02  3.0480426464E+02 -1.6977590470E+02  3.8710802242E+02  1.5000000000E+00 0. 9.
 1000024    2    7    0    0    0  5.2750908175E+02 -7.5387907923E+02 -1.4711934333E+02  9.6985752689E+02  2.6903535800E+02 0. 9.
      -6    2    7    0    0  104 -1.0848917701E+02  3.2862605302E+00  8.0999288229E+01  2.1986319776E+02  1.7320000000E+02 0. 9.
       5    1    7    0  102    0  6.8989722923E+01 -4.1985238046E+01  1.3610550719E+01  8.2040411832E+01  4.8000000000E+00 0. 9.
 1000022    1    9    0    0    0 -5.4012042786E+01  8.7250929473E+01 -2.3747258786E+02  2.8905767934E+02  1.2896157000E+02 0. 9.
      23    2    9    0    0    0  4.7288629929E+01  1.5106916645E+02 -1.2493479082E+02  2.2131874734E+02  9.1187600000E+01 0. 9.
 1000022    1   12    0    0    0  1.1983348356E+02 -2.2088219870E+02 -5.5239760426E+01  2.8780466840E+02  1.2896157000E+02 0. 9.
      24    2   12    0    0    0  4.0767559819E+02 -5.3299688052E+02 -9.1879582901E+01  6.8205285848E+02  8.0431188000E+01 0. 9.
     -24    2   13    0    0    0  6.4123229826E+00 -1.5710351746E+01  5.9154567006E+01  1.0127374704E+02  8.0431188000E+01 0. 9.
      -5    1   13    0    0  104 -1.1490149999E+02  1.8996612277E+01  2.1844721223E+01  1.1858945072E+02  4.8000000000E+00 0. 9.
      14    1   16    0    0    0  5.2808415183E+01  8.7990064049E+01 -2.9479030201E+01  1.0677075118E+02  0.0000000000E+00 0. 9.
     -14    1   16    0    0    0 -5.5197852547E+00  6.3079102404E+01 -9.5455760621E+01  1.1454799616E+02  0.0000000000E+00 0. 9.
     -13    1   18    0    0    0  1.1239212381E+02 -2.0868558065E+02 -2.4147398414E+01  2.3825358146E+02  1.0566000000E-01 0. 9.
      14    1   18    0    0    0  2.9528347438E+02 -3.2431129987E+02 -6.7732184487E+01  4.4379927702E+02  0.0000000000E+00 0. 9.
       3    1   19    0  105    0  3.1838395204E+01  6.8276012193E+00 -5.5752927661E-01  3.2570851792E+01  5.0000000000E-01 0. 9.
      -2    1   19    0    0  105 -2.5426072221E+01 -2.2537952966E+01  5.9712096282E+01  6.8702895244E+01  3.3000000000E-01 0. 9.
</event>
<event>
    12   226  1.000000E+00  2.909904E+02  7.865734E-03  1.077860E-01
      -1   -1    0    0    0  101  0.0000000000E+00  0.0000000000E+00  1.9866263635E+02  1.9866263635E+02  0.0000000000E+00 0. 9.
       1   -1    0    0  101    0  0.0000000000E+00  0.0000000000E+00 -5.1069654844E+02  5.1069654844E+02  0.0000000000E+00 0. 9.
 1000024    2    1    2    0    0 -4.0645139798E+01 -1.0316661821E+02 -1.1770706585E+01  2.9122835008E+02  2.6903535800E+02 0. 9.
-1000024    2    1    2    0    0  4.0645139798E+01  1.0316661821E+02 -3.0026320550E+02  4.1813083471E+02  2.6903535800E+02 0. 9.
 1000022    1    3    0    0    0  3.2649344895E+01 -8.7906675323E+01 -6.1131956627E+01  1.7076816432E+02  1.2896157000E+02 0. 9.
      24    2    3    0    0    0 -7.3294484693E+01 -1.5259942885E+01  4.9361250042E+01  1.2046018575E+02  8.0431188000E+01 0. 9.
 1000022    1    4    0    0    0  2.9927015362E+01  4.7592349162E+01 -5.0113890687E+01  1.4934238020E+02  1.2896157000E+02 0. 9.
     -24    2    4    0    0    0  1.0718124436E+01  5.5574269046E+01 -2.5014931482E+02  2.6878845451E+02  8.0431188000E+01 0. 9.
      -1    1    6    0    0  102 -4.0836160852E+01  2.8630052945E+01  4.2338339979E+01  6.5421066156E+01  3.3000000000E-01 0. 9.
       2    1    6    0  102    0 -3.2458323841E+01 -4.3889995829E+01  7.0229100626E+00  5.5039119599E+01  3.3000000000E-01 0. 9.
      15    1    8    0    0    0  1.3239555800E+01  9.1612861481E+00 -1.9906267610E+02  1.9972060922E+02  1.7770000000E+00 0. 9.
     -16    1    8    0    0    0 -2.5214313639E+00  4.6412982898E+01 -5.1086638712E+01  6.9067845286E+01  0.0000000000E+00 0. 9.
</event>
<event>
    15   241  1.000000E+00  7.905551E+02  7.955774E-03  9.526394E-02
      -1   -1    0    0    0  101  0.0000000000E+00  0.0000000000E+00  8.9508936246E+02  8.9508936246E+02  0.0000000000E+00 0. 9.
       2   -1    0    0  102    0  0.0000000000E+00  0.0000000000E+00 -6.5273962229E+02  6.5273962229E+02  0.0000000000E+00 0. 9.
 1000021    2    1    2  102  101  4.1858749633E+02  1.9856733709E+02  2.4764370745E+02  1.0120561510E+03  8.6503512500E+02 0. 9.
 1000024    2    1    2    0    0 -4.1858749633E+02 -1.9856733709E+02 -5.2939672855E+00  5.3577283375E+02  2.6903535800E+02 0. 9.
 1000023    2    3    0    0    0  1.9503029279E+02  3.2228942404E+02  4.1103469599E+02  6.1899929374E+02  2.6889276000E+02 0. 9.
       2    1    3    0  102    0  1.7003478026E+02  3.7791885767E+01 -2.9770600885E+01  1.7671007528E+02  3.3000000000E-01 0. 9.
      -2    1    3    0    0  101  5.3522423282E+01 -1.6151397272E+02 -1.3362038766E+02  2.1634678198E+02  3.3000000000E-01 0. 9.
 1000022    1    4    0    0    0 -3.2011967165E+02 -1.3552964748E+02 -7.4022836946E+01  3.7809437506E+02  1.2896157000E+02 0. 9.
      24    2    4    0    0    0 -9.8467824680E+01 -6.3037689610E+01  6.8728869660E+01  1.5767845869E+02  8.0431188000E+01 0. 9.
 1000022    1    5    0    0    0  8.6934375643E+01  1.9497993488E+02  3.2629671759E+02  4.1070110192E+02  1.2896157000E+02 0. 9.
      23    2    5    0    0    0  1.0809591715E+02  1.2730948917E+02  8.4737978402E+01  2.0829819181E+02  9.1187600000E+01 0. 9.
      -1    1    9    0    0  103 -1.1008047803E+02 -5.6919625305E+01  4.7500199995E+01  1.3271749428E+02  3.3000000000E-01 0. 9.
       2    1    9    0  103    0  1.1612653352E+01 -6.1180643044E+00  2.1228669666E+01  2.4960964414E+01  3.3000000000E-01 0. 9.
       4    1   11    0  104    0  7.5479936433E+01  2.2751966657E+01  5.0082989536E+01  9.3410002845E+01  1.5000000000E+00 0. 9.
      -4    1   11    0    0  104  3.2615980714E+01  1.0455752251E+02  3.4654988866E+01  1.1488818897E+02  1.5000000000E+00 0. 9.
</event>
<event>
     8   272  1.000000E+00  1.109596E+03  7.986786E-03  9.165219E-02
       2   -1    0    0  101    0  0.0000000000E+00  0.0000000000E+00  1.7209955953E+03  1.7209955953E+03  0.0000000000E+00 0. 9.
       2   -1    0    0  102    0  0.0000000000E+00  0.0000000000E+00 -8.2915353102E+02  8.2915353102E+02  0.0000000000E+00 0. 9.
 2000002    2    1    2  102    0 -4.9719890939E+02  3.6355710763E+01  9.1819945441E+02  1.4402404974E+03  9.9129912700E+02 0. 9.
 2000002    2    1    2  101    0  4.9719890939E+02 -3.6355710763E+01 -2.6357390158E+01  1.1099086289E+03  9.9129912700E+02 0. 9.
 1000022    1    3    0    0    0  2.6596153495E+02 -1.2140021762E+02  1.7965725428E+02  3.6658064115E+02  1.2896157000E+02 0. 9.
       2    1    3    0  102    0 -7.6316044434E+02  1.5775592839E+02  7.3854220014E+02  1.0736598563E+03  3.3000000000E-01 0. 9.
 1000022    1    4    0    0    0 -2.4690814935E+02  1.6965867604E+02 -8.0397551270E+01  3.3592045689E+02  1.2896157000E+02 0. 9.
       2    1    4    0  101    0  7.4410705874E+02 -2.0601438680E+02  5.4040161112E+01  7.7398817197E+02  3.3000000000E-01 0. 9.
</event>
<event>
    12   230  1.000000E+00  3.475651E+02  7.881590E-03  1.053250E-01
      -1   -1    0    0    0  101  0.0000000000E+00  0.0000000000E+00  3.0220444622E+02  3.0220444622E+02  0.0000000000E+00 0. 9.
       2   -1    0    0  101    0  0.0000000000E+00  0.0000000000E+00 -5.4038040742E+02  5.4038040742E+02  0.0000000000E+00 0. 9.
 1000023    2    1    2    0    0 -1.9505610395E+02  1.0204377499E+02 -3.3400432813E+02  4.8199794946E+02  2.6889276000E+02 0. 9.
 1000024    2    1    2    0    0  1.9505610395E+02 -1.0204377499E+02  9.5828366932E+01  3.6058690418E+02  2.6903535800E+02 0. 9.
 1000022    1    3    0    0    0 -6.7175860252E+01  3.5506801294E+01 -2.5113673979E+02  2.9235950087E+02  1.2896157000E+02 0. 9.
      23    2    3    0    0    0 -1.2788024370E+02  6.6536973695E+01 -8.2867588338E+01  1.8963844860E+02  9.1187600000E+01 0. 9.
 1000022    1    4    0    0    0  7.3987048147E+01 -8.0856465550E+01 -2.4112679059E+01  1.7095133560E+02  1.2896157000E+02 0. 9.
      24    2    4    0    0    0  1.2106905580E+02 -2.1187309439E+01  1.1994104599E+02  1.8963556858E+02  8.0431188000E+01 0. 9.
       5    1    6    0  102    0 -3.8648041785E+01 -1.4857569258E+01 -4.8547137537E+01  6.3986585009E+01  4.8000000000E+00 0. 9.
      -5    1    6    0    0  102 -8.9232201911E+01  8.1394542953E+01 -3.4320450800E+01  1.2565186359E+02  4.8000000000E+00 0. 9.
      -3    1    8    0    0  103  1.0657736754E+02 -3.5563435420E+01  6.2307681739E+01  1.2847564132E+02  5.0000000000E-01 0. 9.
       4    1    8    0  103    0  1.4491688266E+01  1.4376125981E+01  5.7633364251E+01  6.1159927256E+01  1.5000000000E+00 0. 9.
</event>
<event>
    12   226  1.000000E+00  2.694963E+02  7.858905E-03  1.088849E-01
       2   -1    0    0  101    0  0.0000000000E+00  0.0000000000E+00  1.0072313101E+03  1.0072313101E+03  0.0000000000E+00 0. 9.
      -2   -1    0    0    0  101  0.0000000000E+00  0.0000000000E+00 -7.2337112106E+01  7.2337112106E+01  0.0000000000E+00 0. 9.
 1000024    2    1    2    0    0  1.4595903472E+01  5.9304989057E+00  4.3698989172E+02  5.1340860972E+02  2.6903535800E+02 0. 9.
-1000024    2    1    2    0    0 -1.4595903472E+01 -5.9304989057E+00  4.9790430630E+02  5.6615981251E+02  2.6903535800E+02 0. 9.
 1000022    1    3    0    0    0  4.4210175422E+01  4.8761780104E+01  3.6765574448E+02  3.9513805663E+02  1.2896157000E+02 0. 9.
      24    2    3    0    0    0 -2.9614271950E+01 -4.2831281198E+01  6.9334147239E+01  1.1827055309E+02  8.0431188000E+01 0. 9.
 1000022    1    4    0    0    0  3.2557683386E+00  7.8016791177E+01  2.5390922404E+02  2.9529341395E+02  1.2896157000E+02 0. 9.
     -24    2    4    0    0    0 -1.7851671811E+01 -8.3947290083E+01  2.4399508226E+02  2.7086639856E+02  8.0431188000E+01 0. 9.
     -15    1    6    0    0    0 -1.6099470994E+01 -5.3910997654E+01  1.0975766435E+01  5.7351667911E+01  1.7770000000E+00 0. 9.
      16    1    6    0    0    0 -1.3514800956E+01  1.1079716456E+01  5.8358380804E+01  6.0918885180E+01  0.0000000000E+00 0. 9.
       1    1    8    0  102    0  3.9845941160E+00 -3.5669821236E+01  1.9636492373E+02  1.9961839922E+02  3.3000000000E-01 0. 9.
      -2    1    8    0    0  102 -2.1836265927E+01 -4.8277468846E+01  4.7630158531E+01  7.1247999337E+01  3.3000000000E-01 0. 9.
</event>
<event>
    17   258  1.000000E+00  1.135569E+03  7.988912E-03  9.141565E-02
      21   -1    0    0  101  102  0.0000000000E+00  0.0000000000E+00  7.0358876973E+02  7.0358876973E+02  0.0000000000E+00 0. 9.
       2   -1    0    0  102    0  0.0000000000E+00  0.0000000000E+00 -2.5329791872E+03  2.5329791872E+03  0.0000000000E+00 0. 9.
 1000021    2    1    2  101  103  6.4368547723E+02  9.7466012630E+01 -3.2049781825E+01  1.0831175251E+03  8.6503512500E+02 0. 9.
 1000002    2    1    2  103    0 -6.4368547723E+02 -9.7466012630E+01 -1.7973406357E+03  2.1534504318E+03  9.9150632100E+02 0. 9.
 1000023    2    3    0    0    0  2.9156762084E+02 -1.1079988852E+02  8.9661786833E+01  4.2146274476E+02  2.6889276000E+02 0. 9.
       2    1    3    0  101    0  5.6074722105E+01 -1.6477109760E+02 -2.8020483181E+01  1.7629278330E+02  3.3000000000E-01 0. 9.
      -2    1    3    0    0  103  2.9604313428E+02  3.7303699875E+02 -9.3691085476E+01  4.8536199706E+02  3.3000000000E-01 0. 9.
 1000024    2    4    0    0    0 -8.3161664733E+02  2.8425242986E+01 -1.6904639497E+03  1.9032715602E+03  2.6903535800E+02 0. 9.
       1    1    4    0  103    0  1.8793117010E+02 -1.2589125562E+02 -1.0687668593E+02  2.5017887167E+02  3.3000000000E-01 0. 9.
 1000022    1    5    0    0    0  1.2320406780E+02 -4.3918730511E+01  7.9005434686E+01  1.9995260053E+02  1.2896157000E+02 0. 9.
      25    2    5    0    0    0  1.6836355304E+02 -6.6881158007E+01  1.0656352147E+01  2.2151014422E+02  1.2701893900E+02 0. 9.
 1000022    1    8    0    0    0 -7.1879894872E+02  1.2195270221E+01 -1.4854343023E+03  1.6552845092E+03  1.2896157000E+02 0. 9.
      24    2    8    0    0    0 -1.1281769860E+02  1.6229972764E+01 -2.0502964739E+02  2.4798705097E+02  8.0431188000E+01 0. 9.
       5    1   11    0  104    0  1.1916829344E+02 -7.1474343985E+01  6.0073570102E+01  1.5146464220E+02  4.8000000000E+00 0. 9.
      -5    1   11    0    0  104  4.9195259595E+01  4.5931859776E+00 -4.9417217955E+01  7.0045502029E+01  4.8000000000E+00 0. 9.
      -1    1   13    0    0  105 -1.1849913892E+02  1.2582723382E+01 -2.0867788051E+02  2.4030592494E+02  3.3000000000E-01 0. 9.
       2    1   13    0  105    0  5.6814403146E+00  3.6472493818E+00  3.6482331126E+00  7.6811260207E+00  3.3000000000E-01 0. 9.
</event>
<event>
    22   244  1.000000E+00  1.219487E+03  7.995468E-03  9.069437E-02
      21   -1    0    0  101  102  0.0000000000E+00  0.0000000000E+00  7.6335337655E+02  7.6335337655E+02  0.0000000000E+00 0. 9.
      21   -1    0    0  102  103  0.0000000000E+00  0.0000000000E+00 -2.3844474658E+03  2.3844474658E+03  0.0000000000E+00 0. 9.
 1000021    2    1    2  104  103  8.9576860857E+01  8.5489142888E+02 -1.4837719999E+03  1.9206062804E+03  8.6503512500E+02 0. 9.
 1000021    2    1    2  101  104 -8.9576860857E+01 -8.5489142888E+02 -1.3732208936E+02  1.2271945620E+03  8.6503512500E+02 0. 9.
 1000024    2    3    0    0    0  3.2389341818E+02  1.7691887676E+02 -4.3461525000E+02  6.3045830527E+02  2.6903535800E+02 0. 9.
      -4    1    3    0    0  103 -1.2780297664E+02  3.2529485241E+02 -3.2309268100E+02  4.7596373009E+02  1.5000000000E+00 0. 9.
       3    1    3    0  104    0 -1.0651358068E+02  3.5267769971E+02 -7.2606406891E+02  8.1418424506E+02  5.0000000000E-01 0. 9.
 1000024    2    4    0    0    0 -1.4525000883E+02 -8.0457660969E+02 -2.9491660044E+02  9.0983345234E+02  2.6903535800E+02 0. 9.
      -6    2    4    0    0  104 -2.8335880863E+01 -4.8933382301E+01  6.8086817390E+01  1.9450309188E+02  1.7320000000E+02 0. 9.
       5    1    4    0  101    0  8.4009028834E+01 -1.3814368902E+00  8.9507693685E+01  1.2285801774E+02  4.8000000000E+00 0. 9.
 1000022    1    5    0    0    0  2.7082925650E+02  1.8138232741E+02 -2.8190186132E+02  4.4983083579E+02  1.2896157000E+02 0. 9.
      24    2    5    0    0    0  5.3064161678E+01 -4.4634506428E+00 -1.5271338868E+02  1.8062746948E+02  8.0431188000E+01 0. 9.
 1000022    1    8    0    0    0  8.5772488767E+00 -2.9185508661E+02 -9.9754310613E+01  3.3441735870E+02  1.2896157000E+02 0. 9.
      24    2    8    0    0    0 -1.5382725770E+02 -5.1272152308E+02 -1.9516228982E+02  5.7541609364E+02  8.0431188000E+01 0. 9.
     -24    2    9    0    0    0 -8.0344076696E+00  7.7630143983E+00  9.7850799125E+01  1.2715648230E+02  8.0431188000E+01 0. 9.
      -5    1    9    0    0  104 -2.0301473193E+01 -5.6696396699E+01 -2.9763981735E+01  6.7346609575E+01  4.8000000000E+00 0. 9.
      -1    1   12    0    0  105  4.3066149564E+01 -3.7457069786E+01 -1.2098530504E+02  1.3377323444E+02  3.3000000000E-01 0. 9.
       2    1   12    0  105    0  9.9980121140E+00  3.2993619143E+01 -3.1728083634E+01  4.6854235043E+01  3.3000000000E-01 0. 9.
      -3    1   14    0    0  106 -1.3448148350E+02 -4.8330860569E+02 -1.6239852737E+02  5.2730068219E+02  5.0000000000E-01 0. 9.
       4    1   14    0  106    0 -1.9345774201E+01 -2.9412917387E+01 -3.2763762458E+01  4.8115411450E+01  1.5000000000E+00 0. 9.
      13    1   15    0    0    0 -1.1870839706E+01 -1.8930644536E+01 -3.1964837034E+00  2.2572434738E+01  1.0566000000E-01 0. 9.
     -14    1   15    0    0    0  3.8364320362E+00  2.6693658935E+01  1.0104728283E+02  1.0458404757E+02  0.0000000000E+00 0. 9.
</event>
<event>
    12   226  1.000000E+00  2.696278E+02  7.858948E-03  1.088779E-01
      -1   -1    0    0    0  101  0.0000000000E+00  0.0000000000E+00  2.3873501408E+02  2.3873501408E+02  0.0000000000E+00 0. 9.
       1   -1    0    0  101    0  0.0000000000E+00  0.0000000000E+00 -3.3679668290E+02  3.3679668290E+02  0.0000000000E+00 0. 9.
 1000024    2    1    2    0    0 -1.7229934584E+00 -1.7780693085E+01  4.0055731940E+01  2.7258688022E+02  2.6903535800E+02 0. 9.
-1000024    2    1    2    0    0  1.7229934584E+00  1.7780693085E+01 -1.3811740076E+02  3.0294481676E+02  2.6903535800E+02 0. 9.
 1000022    1    3    0    0    0  1.3097330539E+01  6.8473843405E+01 -1.6795707291E+00  1.4660871322E+02  1.2896157000E+02 0. 9.
      24    2    3    0    0    0 -1.4820323997E+01 -8.6254536490E+01  4.1735302669E+01  1.2597816700E+02  8.0431188000E+01 0. 9.
 1000022    1    4    0    0    0 -2.5107788537E+01 -6.6482015344E+01 -9.7907475397E+01  1.7682539321E+02  1.2896157000E+02 0. 9.
     -24    2    4    0    0    0  2.6830781995E+01  8.4262708429E+01 -4.0209925359E+01  1.2611942354E+02  8.0431188000E+01 0. 9.
      -1    1    6    0    0  102 -2.4079776395E+01 -5.8054169507E+01  6.3365975180E+01  8.9249526267E+01  3.3000000000E-01 0. 9.
       2    1    6    0  102    0  9.2594523980E+00 -2.8200366983E+01 -2.1630672512E+01  3.6728640732E+01  3.3000000000E-01 0. 9.
       1    1    8    0  103    0 -7.2061760727E+00  3.8455208709E+01 -5.4686962262E+01  6.7242135540E+01  3.3000000000E-01 0. 9.
      -2    1    8    0    0  103  3.4036958068E+01  4.5807499720E+01  1.4477036903E+01  5.8877288003E+01  3.3000000000E-01 0. 9.
</event>
<event>
    12   226  1.000000E+00  2.844565E+02  7.863712E-03  1.081089E-01
      -2   -1    0    0    0  101  0.0000000000E+00  0.0000000000E+00  6.3909606206E+02  6.3909606206E+02  0.0000000000E+00 0. 9.
       2   -1    0    0  101    0  0.0000000000E+00  0.0000000000E+00 -1.7710789959E+02  1.7710789959E+02  0.0000000000E+00 0. 9.
-1000024    2    1    2    0    0 -7.9056175780E+01 -4.7807805123E+01  4.4891027848E+02  5.3144701254E+02  2.6903535800E+02 0. 9.
 1000024    2    1    2    0    0  7.9056175780E+01  4.7807805123E+01  1.3077883988E+01  2.8475694910E+02  2.6903535800E+02 0. 9.
 1000022    1    3    0    0    0  2.2552354391E+01 -1.6422459334E+01  3.1934095686E+02  3.4552574307E+02  1.2896157000E+02 0. 9.
     -24    2    3    0    0    0 -1.0160853017E+02 -3.1385345789E+01  1.2956932162E+02  1.8592126947E+02  8.0431188000E+01 0. 9.
 1000022    1    4    0    0    0 -4.5801105760E+00  1.4690655552E+01  7.4108434247E+01  1.4953240230E+02  1.2896157000E+02 0. 9.
      24    2    4    0    0    0  8.3636286356E+01  3.3117149570E+01 -6.1030550260E+01  1.3522454681E+02  8.0431188000E+01 0. 9.
      15    1    6    0    0    0 -3.8420354144E+01  1.1337006672E+01  5.7696604694E+00  4.0510468324E+01  1.7770000000E+00 0. 9.
     -16    1    6    0    0    0 -6.3188176026E+01 -4.2722352460E+01  1.2379966115E+02  1.4541080115E+02  0.0000000000E+00 0. 9.
      -3    1    8    0    0  102  2.9869742496E+01  1.4423814227E+01 -7.0127218049E+01  7.7577861822E+01  5.0000000000E-01 0. 9.
       2    1    8    0  102    0  5.3766543859E+01  1.8693335343E+01  9.0966677891E+00  5.7646684985E+01  3.3000000000E-01 0. 9.
</event>
<event>
    13   258  1.000000E+00  1.190207E+03  7.993232E-03  9.093895E-02
       1   -1    0    0  101    0  0.0000000000E+00  0.0000000000E+00  1.3871301341E+03  1.3871301341E+03  0.0000000000E+00 0. 9.
      21   -1    0    0  102  101  0.0000000000E+00  0.0000000000E+00 -1.4843874574E+03  1.4843874574E+03  0.0000000000E+00 0. 9.
 1000001    2    1    2  103    0  7.3026853770E+02  1.2175145694E+02  7.5303277849E+02  1.4504635534E+03  9.9431916400E+02 0. 9.
 1000021    2    1    2  102  103 -7.3026853770E+02 -1.2175145694E+02 -8.5029010183E+02  1.4210540381E+03  8.6503512500E+02 0. 9.
-1000024    2    3    0    0    0 -2.2484350085E+01  3.3333288466E+02  4.2078583839E+02  6.0088027397E+02  2.6903535800E+02 0. 9.
       2    1    3    0  103    0  7.5275288778E+02 -2.1158142772E+02  3.3224694009E+02  8.4958327945E+02  3.3000000000E-01 0. 9.
 1000022    1    4    0    0    0 -3.0039671655E+02 -3.1897188755E+02 -6.0561274787E+02  7.5853750025E+02  1.2896157000E+02 0. 9.
       4    1    4    0  102    0 -4.4538679089E+02  2.2264468338E+02 -9.1265340994E+01  5.0623281304E+02  1.5000000000E+00 0. 9.
      -4    1    4    0    0  103  1.5514969747E+01 -2.5424252771E+01 -1.5341201296E+02  1.5628372480E+02  1.5000000000E+00 0. 9.
 1000022    1    5    0    0    0 -8.1241720798E+01  1.3951371832E+02  1.6199074593E+02  2.6255739011E+02  1.2896157000E+02 0. 9.
     -24    2    5    0    0    0  5.8757370713E+01  1.9381916634E+02  2.5879509247E+02  3.3832288386E+02  8.0431188000E+01 0. 9.
       1    1   11    0  104    0  2.4231786904E+01  2.6897055801E+01  9.6068934933E+01  1.0266440603E+02  3.3000000000E-01 0. 9.
      -2    1   11    0    0  104  3.4525583809E+01  1.6692211054E+02  1.6272615753E+02  2.3565847782E+02  3.3000000000E-01 0. 9.
</event>
<event>
    16   259  1.000000E+00  9.342381E+02  7.971020E-03  9.344993E-02
       2   -1    0    0  101    0  0.0000000000E+00  0.0000000000E+00  1.7796188351E+03  1.7796188351E+03  0.0000000000E+00 0. 9.
      21   -1    0    0  102  101  0.0000000000E+00  0.0000000000E+00 -4.8961235777E+02  4.8961235777E+02  0.0000000000E+00 0. 9.
 2000002    2    1    2  103    0  6.1542650134E+01 -5.9443326421E+01  6.2805360283E+02  1.1766249590E+03  9.9129912700E+02 0. 9.
 1000021    2    1    2  102  103 -6.1542650134E+01  5.9443326421E+01  6.6195287450E+02  1.0926062339E+03  8.6503512500E+02 0. 9.
 1000021    2    3    0  103  104  9.1043746560E+01  5.8065343510E+01  5.7538539787E+02  1.0445164774E+03  8.6503512500E+02 0. 9.
       2    1    3    0  104    0 -2.9501096426E+01 -1.1750866993E+02  5.2668204963E+01  1.3210848161E+02  3.3000000000E-01 0. 9.
 1000022    1    4    0    0    0 -2.1937856552E+02 -2.9602482179E+02  5.5895713289E+02  6.8177841934E+02  1.2896157000E+02 0. 9.
       1    1    4    0  102    0  1.0208649496E+02  1.3546176036E+02  5.9375202615E+01  1.7971384076E+02  3.3000000000E-01 0. 9.
      -1    1    4    0    0  103  5.5749420427E+01  2.2000638785E+02  4.3620538996E+01  2.3111397382E+02  3.3000000000E-01 0. 9.
 1000024    2    5    0    0    0  4.1586679047E+02  3.4243844657E+01  3.1941856666E+02  5.9036096830E+02  2.6903535800E+02 0. 9.
      -2    1    5    0    0  104 -1.4633853538E+02  7.5347536836E+01  4.0205286545E+01  1.6943669086E+02  3.3000000000E-01 0. 9.
       1    1    5    0  103    0 -1.7848450854E+02 -5.1526037984E+01  2.1576154467E+02  2.8471881820E+02  3.3000000000E-01 0. 9.
 1000022    1   10    0    0    0  2.8563829417E+02  9.8066311432E+01  2.3835613917E+02  4.0577206921E+02  1.2896157000E+02 0. 9.
      24    2   10    0    0    0  1.3022849631E+02 -6.3822466775E+01  8.1062427483E+01  1.8458889909E+02  8.0431188000E+01 0. 9.
      -3    1   14    0    0  105  3.6653490253E+01 -2.1460647096E+01 -1.3899420999E+01  4.4693194399E+01  5.0000000000E-01 0. 9.
       4    1   14    0  105    0  9.3575006052E+01 -4.2361819679E+01  9.4961848482E+01  1.3989570469E+02  1.5000000000E+00 0. 9.
</event>
<event>
    18   243  1.000000E+00  1.051808E+03  7.981878E-03  9.220369E-02
       2   -1    0    0  101    0  0.0000000000E+00  0.0000000000E+00  1.0629108375E+03  1.0629108375E+03  0.0000000000E+00 0. 9.
      -2   -1    0    0    0  102  0.0000000000E+00  0.0000000000E+00 -1.3981157158E+03  1.3981157158E+03  0.0000000000E+00 0. 9.
 1000021    2    1    2  101  103 -5.6747250213E+02 -1.8971020938E+02 -7.8965567736E+02  1.3152402292E+03  8.6503512500E+02 0. 9.
 1000021    2    1    2  103  102  5.6747250213E+02  1.8971020938E+02  4.5445079914E+02  1.1457863241E+03  8.6503512500E+02 0. 9.
 1000024    2    3    0    0    0 -4.7511974079E+01 -2.5383955151E+02 -2.4886479947E+02  4.4833650070E+02  2.6903535800E+02 0. 9.
      -6    2    3    0    0  103 -5.3999381383E+01 -6.1294472882E+01 -1.9443678221E+02  2.7290446657E+02  1.7320000000E+02 0. 9.
       5    1    3    0  101    0 -4.6596114667E+02  1.2542381501E+02 -3.4635409568E+02  5.9399926192E+02  4.8000000000E+00 0. 9.
 1000022    1    4    0    0    0  2.3063033608E+02  2.5524790741E+02  9.2942416704E+01  3.7896071765E+02  1.2896157000E+02 0. 9.
       4    1    4    0  103    0  4.1279137115E+02  1.0314043116E+01  4.6210001881E+02  6.1971103989E+02  1.5000000000E+00 0. 9.
      -4    1    4    0    0  102 -7.5949205101E+01 -7.5851741147E+01 -1.0059163638E+02  1.4711456658E+02  1.5000000000E+00 0. 9.
 1000022    1    5    0    0    0 -1.1057863860E+02 -1.7117158735E+02 -1.5231128148E+02  2.8523176652E+02  1.2896157000E+02 0. 9.
      24    2    5    0    0    0  6.3066664520E+01 -8.2667964154E+01 -9.6553517996E+01  1.6310473418E+02  8.0431188000E+01 0. 9.
     -24    2    6    0    0    0 -7.0606371458E+01 -2.7772384827E+01 -2.0570646336E+02  2.3353991119E+02  8.0431188000E+01 0. 9.
      -5    1    6    0    0  103  1.6606990075E+01 -3.3522088055E+01  1.1269681144E+01  3.9364555377E+01  4.8000000000E+00 0. 9.
      -1    1   12    0    0  104  4.4122732407E+01 -7.3278051658E+01 -2.5926379035E+01  8.9379944058E+01  3.3000000000E-01 0. 9.
       2    1   12    0  104    0  1.8943932113E+01 -9.3899124962E+00 -7.0627138961E+01  7.3724790122E+01  3.3000000000E-01 0. 9.
       3    1   13    0  105    0 -8.1592693869E+00 -4.7094047848E+00 -1.3888805603E+02  1.3920809703E+02  5.0000000000E-01 0. 9.
      -4    1   13    0    0  105 -6.2447102071E+01 -2.3062980042E+01 -6.6818407324E+01  9.4331814160E+01  1.5000000000E+00 0. 9.
</event>
<event>
    18   244  1.000000E+00  1.251348E+03  7.997842E-03  9.043626E-02
      21   -1    0    0  101  102  0.0000000000E+00  0.0000000000E+00  1.0786090494E+03  1.0786090494E+03  0.0000000000E+00 0. 9.
      21   -1    0    0  103  101  0.0000000000E+00  0.0000000000E+00 -1.7126801008E+03  1.7126801008E+03  0.0000000000E+00 0. 9.
 1000021    2    1    2  104  102  7.6016268522E+02  4.8963035130E+02  2.2771616836E+02  1.2718984274E+03  8.6503512500E+02 0. 9.
 1000021    2    1    2  103  104 -7.6016268522E+02 -4.8963035130E+02 -8.6178721966E+02  1.5193907228E+03  8.6503512500E+02 0. 9.
 1000023    2    3    0    0    0  2.1438665307E+02  1.3565548242E+02 -6.8654921626E+01  3.7600646480E+02  2.6889276000E+02 0. 9.
       3    1    3    0  104    0  5.3245695402E+02  6.6714319609E+01  9.5345197019E+01  5.4502492137E+02  5.0000000000E-01 0. 9.
      -3    1    3    0    0  102  1.3319078137E+01  2.8726054927E+02  2.0102589296E+02  3.5086704128E+02  5.0000000000E-01 0. 9.
 1000023    2    4    0    0    0 -2.7725063223E+02 -5.2021889095E+02 -4.3101901569E+02  7.7818784098E+02  2.6889276000E+02 0. 9.
       2    1    4    0  103    0 -1.5458624026E+02  1.6442931363E+02 -2.6999481859E+02  3.5189659819E+02  3.3000000000E-01 0. 9.
      -2    1    4    0    0  104 -3.2832581274E+02 -1.3384077398E+02 -1.6077338538E+02  3.8930628358E+02  3.3000000000E-01 0. 9.
 1000022    1    5    0    0    0  7.7479869756E+01  2.7536591435E+01 -4.1749620051E+01  1.5854182854E+02  1.2896157000E+02 0. 9.
      25    2    5    0    0    0  1.3690678331E+02  1.0811889099E+02 -2.6905301575E+01  2.1746463626E+02  1.2701893900E+02 0. 9.
 1000022    1    8    0    0    0 -1.3895941320E+02 -2.7374795353E+02 -2.7176860586E+02  4.2981033287E+02  1.2896157000E+02 0. 9.
      25    2    8    0    0    0 -1.3829121903E+02 -2.4647093742E+02 -1.5925040983E+02  3.4837750810E+02  1.2701893900E+02 0. 9.
       5    1   12    0  105    0 -9.4554169041E+00  4.5769557177E+01  2.0694693065E+01  5.1337779403E+01  4.8000000000E+00 0. 9.
      -5    1   12    0    0  105  1.4636220021E+02  6.2349333809E+01 -4.7599994640E+01  1.6612685685E+02  4.8000000000E+00 0. 9.
     -15    1   14    0    0    0 -8.5120092732E+01 -1.1307056291E+02 -1.4727244032E+02  2.0426138106E+02  1.7770000000E+00 0. 9.
      15    1   14    0    0    0 -5.3171126297E+01 -1.3340037451E+02 -1.1977969508E+01  1.4411612704E+02  1.7770000000E+00 0. 9.
</event>
<event>
    12   226  1.000000E+00  3.245184E+02  7.875459E-03  1.062620E-01
       2   -1    0    0  101    0  0.0000000000E+00  0.0000000000E+00  6.8712114202E+02  6.8712114202E+02  0.0000000000E+00 0. 9.
      -2   -1    0    0    0  101  0.0000000000E+00  0.0000000000E+00 -3.2410762972E+02  3.2410762972E+02  0.0000000000E+00 0. 9.
 1000024    2    1    2    0    0  8.9458746526E+00  1.8125151137E+02  5.4859621840E+02  6.3739310770E+02  2.6903535800E+02 0. 9.
-1000024    2    1    2    0    0 -8.9458746526E+00 -1.8125151137E+02 -1.8558270610E+02  3.7383566404E+02  2.6903535800E+02 0. 9.
 1000022    1    3    0    0    0  8.6134355686E+01  9.0957895699E+01  2.7686259585E+02  3.3011581231E+02  1.2896157000E+02 0. 9.
      24    2    3    0    0    0 -7.7188481034E+01  9.0293615672E+01  2.7173362255E+02  3.0727729539E+02  8.0431188000E+01 0. 9.
 1000022    1    4    0    0    0 -5.0156458456E+01 -7.5363190381E+01 -1.7308940361E+02  2.3406475380E+02  1.2896157000E+02 0. 9.
     -24    2    4    0    0    0  4.1210583803E+01 -1.0588832099E+02 -1.2493302488E+01  1.3977091024E+02  8.0431188000E+01 0. 9.
      -1    1    6    0    0  102 -1.5683707145E+01  4.8098296881E+01  1.9002379873E+02  1.9664327554E+02  3.3000000000E-01 0. 9.
       2    1    6    0  102    0 -6.1504773888E+01  4.2195318791E+01  8.1709823821E+01  1.1063401985E+02  3.3000000000E-01 0. 9.
      11    1    8    0    0    0  1.3989582676E+01  5.0006363241E+00  1.6259973186E+01  2.2025020213E+01  5.1000000000E-04 0. 9.
     -12    1    8    0    0    0  2.7221001127E+01 -1.1088895731E+02 -2.8753275674E+01  1.1774589003E+02  0.0000000000E+00 0. 9.
</event>
<event>
    12   230  1.000000E+00  3.643721E+02  7.885816E-03  1.046896E-01
      -2   -1    0    0    0  101  0.0000000000E+00  0.0000000000E+00  6.9864088440E+01  6.9864088440E+01  0.0000000000E+00 0. 9.
       1   -1    0    0  101    0  0.0000000000E+00  0.0000000000E+00 -1.9133572730E+03  1.9133572730E+03  0.0000000000E+00 0. 9.
-1000024    2    1    2    0    0  2.4305530692E+02  3.6735549885E+01 -1.0036006255E+03  1.0677170141E+03  2.6903535800E+02 0. 9.
 1000023    2    1    2    0    0 -2.4305530692E+02 -3.6735549885E+01 -8.3989255900E+02  9.1550434728E+02  2.6889276000E+02 0. 9.
 1000022    1    3    0    0    0  1.0018041211E+02  9.2498367446E+00 -7.2554460616E+02  7.4375246992E+02  1.2896157000E+02 0. 9.
     -24    2    3    0    0    0  1.4287489481E+02  2.7485713141E+01 -2.7805601938E+02  3.2396454422E+02  8.0431188000E+01 0. 9.
 1000022    1    4    0    0    0 -1.3450237052E+02 -4.8323476431E+01 -3.7823685010E+02  4.2440575793E+02  1.2896157000E+02 0. 9.
      25    2    4    0    0    0 -1.0855293640E+02  1.1587926546E+01 -4.6165570890E+02  4.9109858936E+02  1.2701893900E+02 0. 9.
       3    1    6    0  102    0  1.8641503346E+01  3.7205392433E+01 -6.8318423270E+01  7.9996273859E+01  5.0000000000E-01 0. 9.
      -4    1    6    0    0  102  1.2423339147E+02 -9.7196792928E+00 -2.0973759611E+02  2.4396827036E+02  1.5000000000E+00 0. 9.
       5    1    8    0  103    0 -1.3774531033E+01  5.8001971807E+01 -1.3170897479E+02  1.4465220523E+02  4.8000000000E+00 0. 9.
      -5    1    8    0    0  103 -9.4778405364E+01 -4.6414045262E+01 -3.2994673411E+02  3.4644638413E+02  4.8000000000E+00 0. 9.
</event>
<event>
    16   259  1.000000E+00  1.145759E+03  7.989733E-03  9.132463E-02
       2   -1    0    0  101    0  0.0000000000E+00  0.0000000000E+00  2.3914454914E+03  2.3914454914E+03  0.0000000000E+00 0. 9.
      21   -1    0    0  102  101  0.0000000000E+00  0.0000000000E+00 -5.9311496746E+02  5.9311496746E+02  0.0000000000E+00 0. 9.
 2000002    2    1    2  103    0 -4.7196750076E+02 -4.7384751653E+02  1.3482000367E+03  1.8021104541E+03  9.9129912700E+02 0. 9.
 1000021    2    1    2  102  103  4.7196750076E+02  4.7384751653E+02  4.5013048726E+02  1.1824500048E+03  8.6503512500E+02 0. 9.
 1000021    2    3    0  103  104 -3.1806192691E+02 -3.3277864070E+02  1.1813410103E+03  1.5348476678E+03  8.6503512500E+02 0. 9.
       2    1    3    0  104    0 -1.5390557385E+02 -1.4106887584E+02  1.6685902636E+02  2.6726278636E+02  3.3000000000E-01 0. 9.
 1000022    1    4    0    0    0  2.2962538690E+02  8.0145348967E+01  1.0094762689E+02  2.9321085448E+02  1.2896157000E+02 0. 9.
       2    1    4    0  102    0 -1.8839409550E+01  5.2485930960E+02  2.3679326057E+02  5.7611055829E+02  3.3000000000E-01 0. 9.
      -2    1    4    0    0  103  2.6118152340E+02 -1.3115714203E+02  1.1238959980E+02  3.1312859198E+02  3.3000000000E-01 0. 9.
 1000023    2    5    0    0    0 -5.2280243509E+02 -2.0704559280E+02  7.4143746425E+02  9.6861916841E+02  2.6889276000E+02 0. 9.
       4    1    5    0  103    0  1.5535426367E+02  5.6224262089E+01  1.7070283998E+02  2.3756646326E+02  1.5000000000E+00 0. 9.
      -4    1    5    0    0  104  4.9386244510E+01 -1.8195730999E+02  2.6920070610E+02  3.2866203609E+02  1.5000000000E+00 0. 9.
 1000022    1   10    0    0    0 -3.2604822853E+02 -1.5447678818E+02  4.4636233818E+02  5.8825245337E+02  1.2896157000E+02 0. 9.
      25    2   10    0    0    0 -1.9675420656E+02 -5.2568804616E+01  2.9507512607E+02  3.8036671503E+02  1.2701893900E+02 0. 9.
       5    1   14    0  105    0 -5.0655286958E+01  2.5195142652E+01  1.4941711740E+02  1.5984138476E+02  4.8000000000E+00 0. 9.
      -5    1   14    0    0  105 -1.4609891960E+02 -7.7763947268E+01  1.4565800867E+02  2.2052533027E+02  4.8000000000E+00 0. 9.
</event>
<event>
    17   258  1.000000E+00  9.353029E+02  7.971124E-03  9.343779E-02
       1   -1    0    0  101    0  0.0000000000E+00  0.0000000000E+00  9.1160940467E+02  9.1160940467E+02  0.0000000000E+00 0. 9.
      21   -1    0    0  102  101  0.0000000000E+00  0.0000000000E+00 -1.9522933418E+03  1.9522933418E+03  0.0000000000E+00 0. 9.
 1000001    2    1    2  103    0  6.4510331499E+01 -4.6387224017E+01 -1.5601385822E+03  1.8517603389E+03  9.9431916400E+02 0. 9.
 1000021    2    1    2  102  103 -6.4510331499E+01  4.6387224017E+01  5.1945464502E+02  1.0121424075E+03  8.6503512500E+02 0. 9.
-1000024    2    3    0    0    0  1.0159154738E+00 -4.2456333224E+02 -4.4072139487E+02  6.6848367738E+02  2.6903535800E+02 0. 9.
       2    1    3    0  103    0  6.3494416025E+01  3.7817610822E+02 -1.1194171873E+03  1.1832766616E+03  3.3000000000E-01 0. 9.
 1000023    2    4    0    0    0  1.2551004940E+02  1.2402817440E+02 -5.7396210262E+01  3.2670078341E+02  2.6889276000E+02 0. 9.
       1    1    4    0  102    0 -6.6012296163E+00  4.6308811242E+01  3.9829546339E+02  4.0103300025E+02  3.3000000000E-01 0. 9.
      -1    1    4    0    0  103 -1.8341915129E+02 -1.2394976162E+02  1.7855539189E+02  2.8440862388E+02  3.3000000000E-01 0. 9.
 1000022    1    5    0    0    0 -4.7650366515E+01 -1.1634075544E+02 -1.4727152850E+02  2.3264934655E+02  1.2896157000E+02 0. 9.
     -24    2    5    0    0    0  4.8666281988E+01 -3.0822257681E+02 -2.9344986637E+02  4.3583433083E+02  8.0431188000E+01 0. 9.
 1000022    1    7    0    0    0  6.2858448426E+01  9.0417346863E+01  1.7247307959E+00  1.6958933453E+02  1.2896157000E+02 0. 9.
      25    2    7    0    0    0  6.2651600979E+01  3.3610827534E+01 -5.9120941058E+01  1.5711144888E+02  1.2701893900E+02 0. 9.
       1    1   11    0  104    0  5.5819724311E+01 -1.7601166323E+02 -2.0854847966E+02  2.7854716743E+02  3.3000000000E-01 0. 9.
      -2    1   11    0    0  104 -7.1534423222E+00 -1.3221091358E+02 -8.4901386715E+01  1.5728716340E+02  3.3000000000E-01 0. 9.
       4    1   13    0  105    0 -1.0350994633E+01 -1.3204654277E+01 -6.7874714561E+01  6.9933774824E+01  1.5000000000E+00 0. 9.
      -4    1   13    0    0  105  7.3002595612E+01  4.6815481811E+01  8.7537735022E+00  8.7177674056E+01  1.5000000000E+00 0. 9.
</event>
<event>
    12   226  1.000000E+00  2.895043E+02  7.865278E-03  1.078587E-01
      -2   -1    0    0    0  101  0.0000000000E+00  0.0000000000E+00  2.1340532909E+02  2.1340532909E+02  0.0000000000E+00 0. 9.
       2   -1    0    0  101    0  0.0000000000E+00  0.0000000000E+00 -5.5704073940E+02  5.5704073940E+02  0.0000000000E+00 0. 9.
-1000024    2    1    2    0    0  4.5331429305E+01  9.6838904817E+01 -3.8103085599E+02  4.7853657022E+02  2.6903535800E+02 0. 9.
 1000024    2    1    2    0    0 -4.5331429305E+01 -9.6838904817E+01  3.7395445687E+01  2.9190949827E+02  2.6903535800E+02 0. 9.
 1000022    1    3    0    0    0  4.4170549471E+01 -2.0609488744E+00 -9.7330815048E+01  1.6751017595E+02  1.2896157000E+02 0. 9.
     -24    2    3    0    0    0  1.1608798342E+00  9.8899853691E+01 -2.8370004094E+02  3.1102639428E+02  8.0431188000E+01 0. 9.
 1000022    1    4    0    0    0 -8.7454105067E+01  8.9753452957E-01  1.3720539905E+01  1.5642367408E+02  1.2896157000E+02 0. 9.
      24    2    4    0    0    0  4.2122675762E+01 -9.7736439347E+01  2.3674905781E+01  1.3548582419E+02  8.0431188000E+01 0. 9.
       1    1    6    0  102    0 -6.7539385899E+00  7.5037983438E+01 -9.7909127223E+01  1.2354197966E+02  3.3000000000E-01 0. 9.
      -2    1    6    0    0  102  7.9148184241E+00  2.3861870253E+01 -1.8579091372E+02  1.8748441462E+02  3.3000000000E-01 0. 9.
      -3    1    8    0    0  103 -1.0983984810E+01  8.9616834883E+00  3.2985994254E+00  1.4563325562E+01  5.0000000000E-01 0. 9.
       4    1    8    0  103    0  5.3106660572E+01 -1.0669812283E+02  2.0376306356E+01  1.2092249863E+02  1.5000000000E+00 0. 9.
</event>
<event>
    23   279  1.000000E+00  9.968911E+02  7.976962E-03  9.276334E-02
      21   -1    0    0  101  102  0.0000000000E+00  0.0000000000E+00  1.1135494422E+03  1.1135494422E+03  0.0000000000E+00 0. 9.
      21   -1    0    0  102  103  0.0000000000E+00  0.0000000000E+00 -8.9371077472E+02  8.9371077472E+02  0.0000000000E+00 0. 9.
 1000004    2    1    2  101    0 -4.2998288902E+01 -9.4117869776E+01  7.2285406392E+01  9.9950837456E+02  9.9150632100E+02 0. 9.
-1000004    2    1    2    0  103  4.2998288902E+01  9.4117869776E+01  1.4755326104E+02  1.0077518423E+03  9.9150632100E+02 0. 9.
 1000024    2    3    0    0    0 -2.4124476421E-01 -4.2203603678E+01 -4.2114134537E+02  5.0151895178E+02  2.6903535800E+02 0. 9.
       3    1    3    0  101    0 -4.2757044138E+01 -5.1914266099E+01  4.9342675176E+02  4.9798942278E+02  5.0000000000E-01 0. 9.
 1000021    2    4    0  104  103 -2.5744980858E+01  8.0645325370E+01  2.3046075259E+02  8.9920208992E+02  8.6503512500E+02 0. 9.
      -4    1    4    0    0  104  6.8743269760E+01  1.3472544407E+01 -8.2907491551E+01  1.0854975240E+02  1.5000000000E+00 0. 9.
 1000022    1    5    0    0    0 -1.3722853631E+01 -1.0693249361E+02 -2.5285444799E+02  3.0362696406E+02  1.2896157000E+02 0. 9.
      24    2    5    0    0    0  1.3481608867E+01  6.4728889935E+01 -1.6828689738E+02  1.9789198772E+02  8.0431188000E+01 0. 9.
-1000024    2    7    0    0    0  2.0371085879E+02  1.8315184063E+02  1.8360741119E+01  3.8439543622E+02  2.6903535800E+02 0. 9.
       6    2    7    0  104    0 -4.8049602698E+01 -1.4434197953E+02 -2.6696415809E+00  2.3054010141E+02  1.7320000000E+02 0. 9.
      -5    1    7    0    0  103 -1.8140623695E+02  4.1835464268E+01  2.1476965305E+02  2.8426655228E+02  4.8000000000E+00 0. 9.
      -1    1   10    0    0  105  8.7919340007E+00  7.7319499602E+01 -1.6718328429E+02  1.8440705672E+02  3.3000000000E-01 0. 9.
       2    1   10    0  105    0  4.6896748662E+00 -1.2590609667E+01 -1.1036130897E+00  1.3484930997E+01  3.3000000000E-01 0. 9.
 1000022    1   11    0    0    0  3.6598025531E+01  1.1237972415E+02  5.3236499580E+01  1.8284919824E+02  1.2896157000E+02 0. 9.
     -24    2   11    0    0    0  1.6711283326E+02  7.0772116486E+01 -3.4875758461E+01  2.0154623798E+02  8.0431188000E+01 0. 9.
      24    2   12    0    0    0 -4.9314708184E+00 -1.1215131785E+01 -3.2100550422E+01  8.7462677331E+01  8.0431188000E+01 0. 9.
       5    1   12    0  104    0 -4.3118131879E+01 -1.3312684774E+02  2.9430908841E+01  1.4307742408E+02  4.8000000000E+00 0. 9.
       1    1   17    0  106    0  1.3679425959E+02  5.2865222546E+01 -5.9827988199E+01  1.5838844113E+02  3.3000000000E-01 0. 9.
      -2    1   17    0    0  106  3.0318573670E+01  1.7906893940E+01  2.4952229738E+01  4.3157796849E+01  3.3000000000E-01 0. 9.
     -13    1   18    0    0    0  8.3296448746E+00 -4.4630801961E+01 -1.7365689797E+01  4.8609359321E+01  1.0566000000E-01 0. 9.
      14    1   18    0    0    0 -1.3261115693E+01  3.3415670176E+01 -1.4734860625E+01  3.8853318010E+01  0.0000000000E+00 0. 9.
</event>
<event>
    12   226  1.000000E+00  3.487643E+02  7.881898E-03  1.052784E-01
      -2   -1    0    0    0  101  0.0000000000E+00  0.0000000000E+00  2.3538697258E+02  2.3538697258E+02  0.0000000000E+00 0. 9.
       2   -1    0    0  101    0  0.0000000000E+00  0.0000000000E+00 -6.6184952178E+02  6.6184952178E+02  0.0000000000E+00 0. 9.
-1000024    2    1    2    0    0  7.4652674115E+01 -2.0900599070E+02 -3.1786142609E+00  3.4877880289E+02  2.6903535800E+02 0. 9.
 1000024    2    1    2    0    0 -7.4652674115E+01  2.0900599070E+02 -4.2328393494E+02  5.4845769147E+02  2.6903535800E+02 0. 9.
 1000022    1    3    0    0    0 -3.7179772449E+01 -1.3187129872E+02 -2.3414441614E+01  1.8960932867E+02  1.2896157000E+02 0. 9.
     -24    2    3    0    0    0  1.1183244656E+02 -7.7134691985E+01  2.0235827353E+01  1.5916947422E+02  8.0431188000E+01 0. 9.
 1000022    1    4    0    0    0  3.8432501402E+01  1.2608733482E+02 -1.9135766291E+02  2.6575160368E+02  1.2896157000E+02 0. 9.
      24    2    4    0    0    0 -1.1308517552E+02  8.2918655881E+01 -2.3192627202E+02  2.8270608779E+02  8.0431188000E+01 0. 9.
       3    1    6    0  102    0  1.0167252326E+02 -5.5657262424E+01  4.5440217020E+01  1.2449938220E+02  5.0000000000E-01 0. 9.
      -4    1    6    0    0  102  1.0159923309E+01 -2.1477429561E+01 -2.5204389667E+01  3.4670092020E+01  1.5000000000E+00 0. 9.
      -1    1    8    0    0  103 -7.8376717061E+01  5.6743773855E+01 -2.1551129347E+02  2.3623715237E+02  3.3000000000E-01 0. 9.
       2    1    8    0  103    0 -3.4708458456E+01  2.6174882027E+01 -1.6414978550E+01  4.6468935412E+01  3.3000000000E-01 0. 9.
</event>
<event>
    12   230  1.000000E+00  4.041845E+02  7.895110E-03  1.033210E-01
      -1   -1    0    0    0  101  0.0000000000E+00  0.0000000000E+00  8.3130711243E+01  8.3130711243E+01  0.0000000000E+00 0. 9.
       2   -1    0    0  101    0  0.0000000000E+00  0.0000000000E+00 -1.9696826521E+03  1.9696826521E+03  0.0000000000E+00 0. 9.
 1000023    2    1    2    0    0 -9.1738342884E+01 -2.8741526924E+02 -9.9235014110E+02  1.0714875545E+03  2.6889276000E+02 0. 9.
 1000024    2    1    2    0    0  9.1738342884E+01  2.8741526924E+02 -8.9420179979E+02  9.8132580887E+02  2.6903535800E+02 0. 9.
 1000022    1    3    0    0    0 -6.9425860470E+01 -1.1866262710E+02 -5.3475877946E+02  5.6700864890E+02  1.2896157000E+02 0. 9.
      25    2    3    0    0    0 -2.2312482414E+01 -1.6875264214E+02 -4.5759136164E+02  5.0447890561E+02  1.2701893900E+02 0. 9.
 1000022    1    4    0    0    0  7.4419714607E+01  1.0213480966E+02 -5.7952112726E+02  6.0699722960E+02  1.2896157000E+02 0. 9.
      24    2    4    0    0    0  1.7318628277E+01  1.8528045958E+02 -3.1468067253E+02  3.7432857927E+02  8.0431188000E+01 0. 9.
      21    1    6    0  102  103 -1.7504807307E+01 -1.2524348423E+02 -4.3912076293E+02  4.5696760613E+02  0.0000000000E+00 0. 9.
      21    1    6    0  103  102 -4.8076751072E+00 -4.3509157906E+01 -1.8470598710E+01  4.7511299481E+01  0.0000000000E+00 0. 9.
     -15    1    8    0    0    0  3.2271007883E+00  2.2949180713E+01 -4.1022493750E+00  2.3602229849E+01  1.7770000000E+00 0. 9.
      16    1    8    0    0    0  1.4091527488E+01  1.6233127887E+02 -3.1057842315E+02  3.5072634942E+02  0.0000000000E+00 0. 9.
</event>
<event>
    12   226  1.000000E+00  2.691685E+02  7.858797E-03  1.089025E-01
       1   -1    0    0  101    0  0.0000000000E+00  0.0000000000E+00  3.4909175265E+02  3.4909175265E+02  0.0000000000E+00 0. 9.
      -1   -1    0    0    0  101  0.0000000000E+00  0.0000000000E+00 -3.3293314848E+02  3.3293314848E+02  0.0000000000E+00 0. 9.
-1000024    2    1    2    0    0 -4.0853836377E+00  7.4145903132E+00  2.1735689277E+02  3.4597067679E+02  2.6903535800E+02 0. 9.
 1000024    2    1    2    0    0  4.0853836377E+00 -7.4145903132E+00 -2.0119828860E+02  3.3605422435E+02  2.6903535800E+02 0. 9.
 1000022    1    3    0    0    0 -8.2573671409E+01 -8.1595263526E-01  9.7903434739E+01  1.8175600694E+02  1.2896157000E+02 0. 9.
     -24    2    3    0    0    0  7.8488287771E+01  8.2305429485E+00  1.1945345803E+02  1.6421466985E+02  8.0431188000E+01 0. 9.
 1000022    1    4    0    0    0  5.4519958482E+01  5.0068827288E+01 -7.0409459805E+01  1.6452322604E+02  1.2896157000E+02 0. 9.
      24    2    4    0    0    0 -5.0434574844E+01 -5.7483417601E+01 -1.3078882880E+02  1.7153099831E+02  8.0431188000E+01 0. 9.
       3    1    6    0  102    0  5.0961986955E+01  3.7997403316E+01  4.0296306747E+01  7.5265989070E+01  5.0000000000E-01 0. 9.
      -4    1    6    0    0  102  2.7526300817E+01 -2.9766860368E+01  7.9157151283E+01  8.8948680777E+01  1.5000000000E+00 0. 9.
      -1    1    8    0    0  103 -2.3922314951E+01 -6.0174290731E+01 -3.8201336279E+01  7.5184263055E+01  3.3000000000E-01 0. 9.
       2    1    8    0  103    0 -2.6512259893E+01  2.6908731297E+00 -9.2587492520E+01  9.6346735254E+01  3.3000000000E-01 0. 9.
</event>
<event>
    13   259  1.000000E+00  1.143098E+03  7.989519E-03  9.134831E-02
       2   -1    0    0  101    0  0.0000000000E+00  0.0000000000E+00  2.4238005909E+03  2.4238005909E+03  0.0000000000E+00 0. 9.
      21   -1    0    0  102  101  0.0000000000E+00  0.0000000000E+00 -5.3861919164E+02  5.3861919164E+02  0.0000000000E+00 0. 9.
 2000002    2    1    2  103    0  1.8496854994E+02  6.3794940577E+02  9.3531449435E+02  1.5161398258E+03  9.9129912700E+02 0. 9.
 1000021    2    1    2  102  103 -1.8496854994E+02 -6.3794940577E+02  9.4986690490E+02  1.4462799567E+03  8.6503512500E+02 0. 9.
 1000022    1    3    0    0    0 -2.2316345166E+02  7.2791756681E+02  5.5377946443E+02  9.5024664798E+02  1.2896157000E+02 0. 9.
       2    1    3    0  103    0  4.0813200159E+02 -8.9968161048E+01  3.8153502992E+02  5.6589317780E+02  3.3000000000E-01 0. 9.
 1000024    2    4    0    0    0  7.7788409902E+01 -3.2558561883E+02  2.4663574974E+02  4.9524362571E+02  2.6903535800E+02 0. 9.
      -4    1    4    0    0  103 -2.5633119050E+02 -2.1431469421E+02  7.6513110517E+02  8.3490378216E+02  1.5000000000E+00 0. 9.
       3    1    4    0  102    0 -6.4257693424E+00 -9.8049092727E+01 -6.1899950010E+01  1.1613254887E+02  5.0000000000E-01 0. 9.
 1000022    1    7    0    0    0 -2.1531406352E+01 -2.0396448226E+02  8.7309697929E+01  2.5752510824E+02  1.2896157000E+02 0. 9.
      24    2    7    0    0    0  9.9319816254E+01 -1.2162113657E+02  1.5932605181E+02  2.3771851747E+02  8.0431188000E+01 0. 9.
      -3    1   11    0    0  104  1.0959860858E+02 -1.0713286702E+02  1.5755653191E+02  2.1980358720E+02  5.0000000000E-01 0. 9.
       4    1   11    0  104    0 -1.0278792321E+01 -1.4488269546E+01  1.7695198993E+00  1.7914930273E+01  1.5000000000E+00 0. 9.
</event>
<event>
    20   259  1.000000E+00  1.130252E+03  7.988481E-03  9.146352E-02
      21   -1    0    0  101  102  0.0000000000E+00  0.0000000000E+00  1.4214630585E+03  1.4214630585E+03  0.0000000000E+00 0. 9.
       2   -1    0    0  102    0  0.0000000000E+00  0.0000000000E+00 -8.9752941893E+02  8.9752941893E+02  0.0000000000E+00 0. 9.
 1000021    2    1    2  101  103  3.2591968045E+02 -5.5296142306E+02  2.1704684560E+02  1.0988107545E+03  8.6503512500E+02 0. 9.
 2000002    2    1    2  103    0 -3.2591968045E+02  5.5296142306E+02  3.0688679396E+02  1.2201817229E+03  9.9129912700E+02 0. 9.
-1000024    2    3    0    0    0 -1.6059200408E+02 -2.9614594361E+02  6.9396328531E+01  4.3667846977E+02  2.6903535800E+02 0. 9.
       2    1    3    0  101    0  2.0402934979E+02  5.5128233288E+01 -1.2825301475E+01  2.1173496391E+02  3.3000000000E-01 0. 9.
      -1    1    3    0    0  103  2.8248233474E+02 -3.1194371274E+02  1.6047581854E+02  4.5039732081E+02  3.3000000000E-01 0. 9.
 1000021    2    4    0  103  104 -3.4525872230E+02  3.7854543684E+02  2.6677504230E+02  1.0401706224E+03  8.6503512500E+02 0. 9.
       2    1    4    0  104    0  1.9339041847E+01  1.7441598622E+02  4.0111751665E+01  1.8001110052E+02  3.3000000000E-01 0. 9.
 1000022    1    5    0    0    0 -1.2410101343E+02 -2.8662846678E+02  2.9207111433E+01  3.3917706497E+02  1.2896157000E+02 0. 9.
     -24    2    5    0    0    0 -3.6490990649E+01 -9.5174768246E+00  4.0189217098E+01  9.7501404799E+01  8.0431188000E+01 0. 9.
 1000023    2    8    0    0    0 -1.2081976053E+02 -1.5336514141E+02  2.6505416188E+02  4.2505917970E+02  2.6889276000E+02 0. 9.
       4    1    8    0  103    0 -6.6830864843E+01  2.0046792094E+01 -3.5384159877E+01  7.8246579089E+01  1.5000000000E+00 0. 9.
      -4    1    8    0    0  104 -1.5760809692E+02  5.1186378616E+02  3.7105040294E+01  5.3686486364E+02  1.5000000000E+00 0. 9.
      13    1   11    0    0    0 -6.0632827043E+01  1.5841224272E+00  1.9138430561E+01  6.3601413880E+01  1.0566000000E-01 0. 9.
     -14    1   11    0    0    0  2.4141836395E+01 -1.1101599252E+01  2.1050786537E+01  3.3899990919E+01  0.0000000000E+00 0. 9.
 1000022    1   12    0    0    0 -8.3864570072E+01 -9.4783482693E+01  1.8952119689E+02  2.6185214399E+02  1.2896157000E+02 0. 9.
      25    2   12    0    0    0 -3.6955190462E+01 -5.8581658716E+01  7.5532964996E+01  1.6320703571E+02  1.2701893900E+02 0. 9.
       5    1   18    0  105    0  3.8027006189E+01  1.1995926168E+01  1.1200178952E+01  4.1694597406E+01  4.8000000000E+00 0. 9.
      -5    1   18    0    0  105 -7.4982196651E+01 -7.0577584884E+01  6.4332786044E+01  1.2151243831E+02  4.8000000000E+00 0. 9.
</event>
<event>
    22   244  1.000000E+00  1.061252E+03  7.982698E-03  9.211106E-02
      21   -1    0    0  101  102  0.0000000000E+00  0.0000000000E+00  1.0792712493E+03  1.0792712493E+03  0.0000000000E+00 0. 9.
      21   -1    0    0  103  101  0.0000000000E+00  0.0000000000E+00 -1.0524864702E+03  1.0524864702E+03  0.0000000000E+00 0. 9.
 1000021    2    1    2  103  104  5.6756125602E+02  2.3631439072E+02 -8.4912620990E+01  1.0646436922E+03  8.6503512500E+02 0. 9.
 1000021    2    1    2  104  102 -5.6756125602E+02 -2.3631439072E+02  1.1169740016E+02  1.0671140273E+03  8.6503512500E+02 0. 9.
-1000024    2    3    0    0    0  2.5975256121E+02  1.4386136910E+02  4.0766498509E+01  4.0275230332E+02  2.6903535800E+02 0. 9.
       6    2    3    0  103    0  2.4653375750E+02 -1.2486265044E+02  1.0148709553E+02  3.4156616581E+02  1.7320000000E+02 0. 9.
      -5    1    3    0    0  104  6.1274937301E+01  2.1731567206E+02 -2.2716621503E+02  3.2032522304E+02  4.8000000000E+00 0. 9.
-1000024    2    4    0    0    0 -4.0958530816E+02 -3.5724969123E+01 -1.0154289203E+02  5.0172440728E+02  2.6903535800E+02 0. 9.
       2    1    4    0  104    0  1.8411254765E+01  7.4191153526E+01 -9.1171728476E+01  1.1897770605E+02  3.3000000000E-01 0. 9.
      -1    1    4    0    0  102 -1.7638720262E+02 -2.7478057513E+02  3.0441202067E+02  4.4641191398E+02  3.3000000000E-01 0. 9.
 1000022    1    5    0    0    0  2.5497140348E+02  9.0723393428E+01  5.0242416531E+00  2.9982908507E+02  1.2896157000E+02 0. 9.
     -24    2    5    0    0    0  4.7811577267E+00  5.3137975674E+01  3.5742256856E+01  1.0292321826E+02  8.0431188000E+01 0. 9.
      24    2    6    0    0    0  1.2942976540E+02 -3.9585928231E+01  1.1648448103E+02  1.9584922826E+02  8.0431188000E+01 0. 9.
       5    1    6    0  103    0  1.1710399210E+02 -8.5276722210E+01 -1.4997385492E+01  1.4571693755E+02  4.8000000000E+00 0. 9.
 1000022    1    8    0    0    0 -1.1787430092E+02  4.0011833236E+01 -4.3469289566E+01  1.8443417061E+02  1.2896157000E+02 0. 9.
     -24    2    8    0    0    0 -2.9171100724E+02 -7.5736802359E+01 -5.8073602467E+01  3.1729023667E+02  8.0431188000E+01 0. 9.
      13    1   12    0    0    0  8.7161570889E-03 -1.8123270035E+01  2.4727441869E+01  3.0657960437E+01  1.0566000000E-01 0. 9.
     -14    1   12    0    0    0  4.7724415696E+00  7.1261245709E+01  1.1014814987E+01  7.2265257819E+01  0.0000000000E+00 0. 9.
     -13    1   13    0    0    0  1.2972515420E+02 -2.3422633461E+01  7.5780256162E+01  1.5205227318E+02  1.0566000000E-01 0. 9.
      14    1   13    0    0    0 -2.9538879926E-01 -1.6163294769E+01  4.0704224865E+01  4.3796955079E+01  0.0000000000E+00 0. 9.
       1    1   16    0  105    0  2.3282404797E+00 -4.2965409281E+00 -9.6836275491E+00  1.0851843631E+01  3.3000000000E-01 0. 9.
      -2    1   16    0    0  105 -2.9403924772E+02 -7.1440261431E+01 -4.8389974917E+01  3.0643839304E+02  3.3000000000E-01 0. 9.
</event>
<event>
    12   230  1.000000E+00  2.858480E+02  7.864146E-03  1.080394E-01
       1   -1    0    0  101    0  0.0000000000E+00  0.0000000000E+00  2.4405712724E+02  2.4405712724E+02  0.0000000000E+00 0. 9.
      -2   -1    0    0    0  101  0.0000000000E+00  0.0000000000E+00 -3.7426188291E+02  3.7426188291E+02  0.0000000000E+00 0. 9.
 1000023    2    1    2    0    0 -2.2858753975E+01 -9.4047314161E+01 -1.6548361318E+02  3.3023561671E+02  2.6889276000E+02 0. 9.
-1000024    2    1    2    0    0  2.2858753975E+01  9.4047314161E+01  3.5278857505E+01  2.8808339344E+02  2.6903535800E+02 0. 9.
 1000022    1    3    0    0    0 -3.8486149088E+01 -5.0444291873E+01 -4.9218339862E+01  1.5191886575E+02  1.2896157000E+02 0. 9.
      25    2    3    0    0    0  1.5627395113E+01 -4.3603022289E+01 -1.1626527332E+02  1.7831675097E+02  1.2701893900E+02 0. 9.
 1000022    1    4    0    0    0  7.5673450965E+01  9.9958766589E+01 -1.2881941093E+01  1.8031987451E+02  1.2896157000E+02 0. 9.
     -24    2    4    0    0    0 -5.2814696990E+01 -5.9114524277E+00  4.8160798598E+01  1.0776351893E+02  8.0431188000E+01 0. 9.
       5    1    6    0  102    0 -1.6181703965E+01 -1.5489355007E+01 -1.3110394860E+02  1.3309039409E+02  4.8000000000E+00 0. 9.
      -5    1    6    0    0  102  3.1809099078E+01 -2.8113667281E+01  1.4838675278E+01  4.5226356875E+01  4.8000000000E+00 0. 9.
       3    1    8    0  103    0 -6.0259394836E+01  2.4349421344E+01  3.6089822834E+01  7.4342547023E+01  5.0000000000E-01 0. 9.
      -2    1    8    0    0  103  7.4446978456E+00 -3.0260873772E+01  1.2070975764E+01  3.3420971909E+01  3.3000000000E-01 0. 9.
</event>
<event>
    14   254  1.000000E+00  7.573135E+02  7.951862E-03  9.574202E-02
      21   -1    0    0  101  102  0.0000000000E+00  0.0000000000E+00  5.9035485682E+02  5.9035485682E+02  0.0000000000E+00 0. 9.
       2   -1    0    0  102    0  0.0000000000E+00  0.0000000000E+00 -8.3650953228E+02  8.3650953228E+02  0.0000000000E+00 0. 9.
 1000024    2    1    2    0    0  2.8216822731E+01 -2.0543174301E+02  9.9503876146E+01  3.5394835124E+02  2.6903535800E+02 0. 9.
 1000001    2    1    2  101    0 -2.8216822731E+01  2.0543174301E+02 -3.4565855160E+02  1.0729160379E+03  9.9431916400E+02 0. 9.
 1000022    1    3    0    0    0 -1.2586801030E+01 -1.6925817850E+01  4.0515784842E+01  1.3681201054E+02  1.2896157000E+02 0. 9.
      24    2    3    0    0    0  4.0803623761E+01 -1.8850592516E+02  5.8988091303E+01  2.1713634069E+02  8.0431188000E+01 0. 9.
 1000023    2    4    0    0    0  2.6872966221E+02  1.2632791134E+02 -5.6697184587E+02  6.9421521370E+02  2.6889276000E+02 0. 9.
       1    1    4    0  101    0 -2.9694648494E+02  7.9103831670E+01  2.2131329427E+02  3.7870082417E+02  3.3000000000E-01 0. 9.
      -1    1    6    0    0  103  2.6179187555E+01 -1.5553446422E+01 -7.3398376227E+00  3.1324777301E+01  3.3000000000E-01 0. 9.
       2    1    6    0  103    0  1.4624436207E+01 -1.7295247874E+02  6.6327928926E+01  1.8581156339E+02  3.3000000000E-01 0. 9.
 1000022    1    7    0    0    0  1.5065390565E+02  5.6218370093E+01 -2.3034682524E+02  3.0910815398E+02  1.2896157000E+02 0. 9.
      25    2    7    0    0    0  1.1807575656E+02  7.0109541245E+01 -3.3662502063E+02  3.8510705971E+02  1.2701893900E+02 0. 9.
       5    1   12    0  104    0 -1.1674910854E+01 -4.6268639910E+00  3.1167129803E+00  1.3800917130E+01  4.8000000000E+00 0. 9.
      -5    1   12    0    0  104  1.2975066742E+02  7.4736405236E+01 -3.3974173361E+02  3.7130614258E+02  4.8000000000E+00 0. 9.
</event>
<event>
    11   272  1.000000E+00  1.009704E+03  7.978132E-03  9.262944E-02
       2   -1    0    0  101    0  0.0000000000E+00  0.0000000000E+00  1.3618245103E+03  1.3618245103E+03  0.0000000000E+00 0. 9.
       2   -1    0    0  102    0  0.0000000000E+00  0.0000000000E+00 -1.0200671808E+03  1.0200671808E+03  0.0000000000E+00 0. 9.
 2000002    2    1    2  102    0 -4.5656250335E+01 -1.8639892395E+02  7.8522334441E+02  1.2790929254E+03  9.9129912700E+02 0. 9.
 2000002    2    1    2  101    0  4.5656250335E+01  1.8639892395E+02 -4.4346601490E+02  1.1027987657E+03  9.9129912700E+02 0. 9.
 1000021    2    3    0  102  103 -1.6428755382E-01 -2.4391207242E+02  8.0120792994E+02  1.2040402986E+03  8.6503512500E+02 0. 9.
       2    1    3    0  103    0 -4.5491962781E+01  5.7513148467E+01 -1.5984585525E+01  7.5052626861E+01  3.3000000000E-01 0. 9.
 1000022    1    4    0    0    0  4.4770028071E+02  2.6721968868E+02 -4.3739463893E+02  6.9266662982E+02  1.2896157000E+02 0. 9.
       2    1    4    0  101    0 -4.0204403037E+02 -8.0820764731E+01 -6.0713759704E+00  4.1013213587E+02  3.3000000000E-01 0. 9.
 1000022    1    5    0    0    0  1.6686160438E+02 -3.5488458720E+02  7.5175817168E+02  8.5764637263E+02  1.2896157000E+02 0. 9.
       2    1    5    0  102    0 -1.1680612127E+02  1.5490322092E+02  1.3613330544E+02  2.3700435348E+02  3.3000000000E-01 0. 9.
      -2    1    5    0    0  103 -5.0219770661E+01 -4.3930706138E+01 -8.6683547189E+01  1.0938957245E+02  3.3000000000E-01 0. 9.
</event>
<event>
    13   259  1.000000E+00  9.325143E+02  7.970851E-03  9.346961E-02
       2   -1    0    0  101    0  0.0000000000E+00  0.0000000000E+00  1.2289829671E+03  1.2289829671E+03  0.0000000000E+00 0. 9.
      21   -1    0    0  102  101  0.0000000000E+00  0.0000000000E+00 -7.5358057145E+02  7.5358057145E+02  0.0000000000E+00 0. 9.
 2000002    2    1    2  103    0 -3.8080496402E+01  5.1507050591E+01  5.0560157671E+02  1.1146344755E+03  9.9129912700E+02 0. 9.
 1000021    2    1    2  102  103  3.8080496402E+01 -5.1507050591E+01 -3.0199181029E+01  8.6792906305E+02  8.6503512500E+02 0. 9.
 1000022    1    3    0    0    0 -2.5221592998E+02 -4.0056520315E+02  2.9014767725E+02  5.6998431422E+02  1.2896157000E+02 0. 9.
       2    1    3    0  103    0  2.1413543358E+02  4.5207225374E+02  2.1545389946E+02  5.4465016130E+02  3.3000000000E-01 0. 9.
 1000023    2    4    0    0    0 -7.8031699864E+01  8.9189242604E+01 -3.5599437208E+02  4.6160478389E+02  2.6889276000E+02 0. 9.
       2    1    4    0  102    0  6.3822477054E+01 -3.0906989732E+01  2.5700744221E+02  2.6661111163E+02  3.3000000000E-01 0. 9.
      -2    1    4    0    0  103  5.2289719212E+01 -1.0978930346E+02  6.8787748838E+01  1.3971316753E+02  3.3000000000E-01 0. 9.
 1000022    1    7    0    0    0 -3.8525032828E+01  3.1720793034E+01 -1.1253243932E+02  1.7828354748E+02  1.2896157000E+02 0. 9.
      25    2    7    0    0    0 -3.9506667036E+01  5.7468449569E+01 -2.4346193276E+02  2.8332123641E+02  1.2701893900E+02 0. 9.
       5    1   11    0  104    0  2.2931226935E+01  6.6559367622E+01 -7.3161906784E+01  1.0164494671E+02  4.8000000000E+00 0. 9.
      -5    1   11    0    0  104 -6.2437893971E+01 -9.0909180526E+00 -1.7030002597E+02  1.8167628971E+02  4.8000000000E+00 0. 9.
</event>
<event>
    12   230  1.000000E+00  2.691354E+02  7.858786E-03  1.089043E-01
       2   -1    0    0  101    0  0.0000000000E+00  0.0000000000E+00  9.4320053429E+02  9.4320053429E+02  0.0000000000E+00 0. 9.
      -1   -1    0    0    0  101  0.0000000000E+00  0.0000000000E+00 -7.6834322081E+01  7.6834322081E+01  0.0000000000E+00 0. 9.
 1000024    2    1    2    0    0  4.1193360623E+00 -8.6725673937E+00  4.2187906188E+02  5.0045394300E+02  2.6903535800E+02 0. 9.
 1000023    2    1    2    0    0 -4.1193360623E+00  8.6725673937E+00  4.4448715033E+02  5.1958091337E+02  2.6889276000E+02 0. 9.
 1000022    1    3    0    0    0  3.2194192799E+01 -2.9169583705E+01  1.0556339935E+02  1.7222673568E+02  1.2896157000E+02 0. 9.
      24    2    3    0    0    0 -2.8074856736E+01  2.0497016311E+01  3.1631566254E+02  3.2822720732E+02  8.0431188000E+01 0. 9.
 1000022    1    4    0    0    0  1.9410643636E+01  2.5962253662E+01  2.7783796047E+02  3.0801920478E+02  1.2896157000E+02 0. 9.
      25    2    4    0    0    0 -2.3529979699E+01 -1.7289686268E+01  1.6664918986E+02  2.1156170859E+02  1.2701893900E+02 0. 9.
     -13    1    6    0    0    0 -1.8531887158E+01  3.6468653951E+01  6.9014941661E+01  8.0227594375E+01  1.0566000000E-01 0. 9.
      14    1    6    0    0    0 -9.5429695783E+00 -1.5971637640E+01  2.4730072088E+02  2.4799961295E+02  0.0000000000E+00 0. 9.
       5    1    8    0  102    0 -4.1165501165E+00 -1.1523201204E+01  1.8399771028E+02  1.8446660278E+02  4.8000000000E+00 0. 9.
      -5    1    8    0    0  102 -1.9413429582E+01 -5.7664850642E+00 -1.7348520423E+01  2.7095105813E+01  4.8000000000E+00 0. 9.
</event>
<event>
    12   230  1.000000E+00  4.617671E+02  7.907080E-03  1.016148E-01
      -1   -1    0    0    0  101  0.0000000000E+00  0.0000000000E+00  2.2891677247E+02  2.2891677247E+02  0.0000000000E+00 0. 9.
       2   -1    0    0  101    0  0.0000000000E+00  0.0000000000E+00 -9.3341822680E+02  9.3341822680E+02  0.0000000000E+00 0. 9.
 1000023    2    1    2    0    0  3.6697051735E+02 -7.8865836794E+01 -3.2566034358E+02  5.6501783740E+02  2.6889276000E+02 0. 9.
 1000024    2    1    2    0    0 -3.6697051735E+02  7.8865836794E+01 -3.7884111075E+02  5.9731716187E+02  2.6903535800E+02 0. 9.
 1000022    1    3    0    0    0  2.0015577124E+02 -2.5647158825E+01 -8.5859775336E+01  2.5440734478E+02  1.2896157000E+02 0. 9.
      23    2    3    0    0    0  1.6681474610E+02 -5.3218677969E+01 -2.3980056824E+02  3.1061049262E+02  9.1187600000E+01 0. 9.
 1000022    1    4    0    0    0 -3.1990284732E+02  7.5851263862E+01 -3.5571166946E+02  5.0125155789E+02  1.2896157000E+02 0. 9.
      24    2    4    0    0    0 -4.7067670025E+01  3.0145729329E+00 -2.3129441290E+01  9.6065603985E+01  8.0431188000E+01 0. 9.
       3    1    6    0  102    0  1.5183620856E+02 -4.1301864251E+01 -2.4462597556E+02  2.9086456667E+02  5.0000000000E-01 0. 9.
      -3    1    6    0    0  102  1.4978537539E+01 -1.1916813718E+01  4.8254073194E+00  1.9745925954E+01  5.0000000000E-01 0. 9.
      -3    1    8    0    0  103  1.2507888832E+01  2.5108047769E+01  1.0207204339E+00  2.8074066609E+01  5.0000000000E-01 0. 9.
       4    1    8    0  103    0 -5.9575558857E+01 -2.2093474836E+01 -2.4150161724E+01  6.7991537376E+01  1.5000000000E+00 0. 9.
</event>
<event>
    12   230  1.000000E+00  2.911235E+02  7.865775E-03  1.077795E-01
       2   -1    0    0  101    0  0.0000000000E+00  0.0000000000E+00  2.4598364200E+02  2.4598364200E+02  0.0000000000E+00 0. 9.
      -1   -1    0    0    0  101  0.0000000000E+00  0.0000000000E+00 -4.0492323877E+02  4.0492323877E+02  0.0000000000E+00 0. 9.
 1000024    2    1    2    0    0 -5.2731968460E+01 -9.8135371628E+01  4.6186240236E+01  2.9482944952E+02  2.6903535800E+02 0. 9.
 1000023    2    1    2    0    0  5.2731968460E+01  9.8135371628E+01 -2.0512583700E+02  3.5607743126E+02  2.6889276000E+02 0. 9.
 1000022    1    3    0    0    0 -4.7348886393E+01  2.1947473061E+01 -1.0431463971E+01  1.3951168623E+02  1.2896157000E+02 0. 9.
      24    2    3    0    0    0 -5.3830820669E+00 -1.2008284469E+02  5.6617704207E+01  1.5531776329E+02  8.0431188000E+01 0. 9.
 1000022    1    4    0    0    0  1.6491913886E+01  8.5279618240E+01 -1.3533211673E+02  2.0613215389E+02  1.2896157000E+02 0. 9.
      25    2    4    0    0    0  3.6240054574E+01  1.2855753389E+01 -6.9793720276E+01  1.4994527737E+02  1.2701893900E+02 0. 9.
      -1    1    6    0    0  102  8.0663580120E+00  1.0270532249E+01  9.1094482687E+00  1.5926107874E+01  3.3000000000E-01 0. 9.
       2    1    6    0  102    0 -1.3449440079E+01 -1.3035337694E+02  4.7508255938E+01  1.3939165542E+02  3.3000000000E-01 0. 9.
       5    1    8    0  103    0  1.4950517883E+01 -1.4846178836E+01  3.4021199333E+01  4.0303957809E+01  4.8000000000E+00 0. 9.
      -5    1    8    0    0  103  2.1289536691E+01  2.7701932225E+01 -1.0381491961E+02  1.0964131956E+02  4.8000000000E+00 0. 9.
</event>
<event>
    12   226  1.000000E+00  3.679215E+02  7.886684E-03  1.045602E-01
      -2   -1    0    0    0  101  0.0000000000E+00  0.0000000000E+00  1.0566958910E+03  1.0566958910E+03  0.0000000000E+00 0. 9.
       2   -1    0    0  101    0  0.0000000000E+00  0.0000000000E+00 -1.3198191628E+02  1.3198191628E+02  0.0000000000E+00 0. 9.
-1000024    2    1    2    0    0  2.3818049170E+02 -7.9096439932E+01  3.6047062331E+02  5.1507794318E+02  2.6903535800E+02 0. 9.
 1000024    2    1    2    0    0 -2.3818049170E+02  7.9096439932E+01  5.6424335138E+02  6.7359986406E+02  2.6903535800E+02 0. 9.
 1000022    1    3    0    0    0  4.5173303171E+01  7.9892826845E+00  1.7597949415E+02  2.2294466770E+02  1.2896157000E+02 0. 9.
     -24    2    3    0    0    0  1.9300718852E+02 -8.7085722616E+01  1.8449112916E+02  2.9213327549E+02  8.0431188000E+01 0. 9.
 1000022    1    4    0    0    0 -1.1857633717E+02  4.0660646078E+01  1.5294555238E+02  2.3608698483E+02  1.2896157000E+02 0. 9.
      24    2    4    0    0    0 -1.1960415453E+02  3.8435793854E+01  4.1129779900E+02  4.3751287924E+02  8.0431188000E+01 0. 9.
       3    1    6    0  102    0  6.8139125022E+00 -2.4788265059E+01  4.3064808213E+01  5.0156905752E+01  5.0000000000E-01 0. 9.
      -4    1    6    0    0  102  1.8619327602E+02 -6.2297457557E+01  1.4142632095E+02  2.4197636973E+02  1.5000000000E+00 0. 9.
      -1    1    8    0    0  103 -9.5036001195E+01  2.0874848420E+00  1.9656743596E+02  2.1834620422E+02  3.3000000000E-01 0. 9.
       2    1    8    0  103    0 -2.4568153332E+01  3.6348309012E+01  2.1473036304E+02  2.1916667502E+02  3.3000000000E-01 0. 9.
</event>
<event>
    24   258  1.000000E+00  1.001980E+03  7.977429E-03  9.270991E-02
      21   -1    0    0  101  102  0.0000000000E+00  0.0000000000E+00  1.2028675537E+03  1.2028675537E+03  0.0000000000E+00 0. 9.
       1   -1    0    0  102    0  0.0000000000E+00  0.0000000000E+00 -9.5135675833E+02  9.5135675833E+02  0.0000000000E+00 0. 9.
 1000021    2    1    2  101  103 -4.0193140883E+01  3.6588204112E+02 -2.6233600855E+02  9.7600773842E+02  8.6503512500E+02 0. 9.
 1000001    2    1    2  103    0  4.0193140883E+01 -3.6588204112E+02  5.1384680397E+02  1.1782165737E+03  9.9431916400E+02 0. 9.
 1000024    2    3    0    0    0 -2.4956213511E+02  2.5500185649E+02 -1.0647996182E+02  4.5937480581E+02  2.6903535800E+02 0. 9.
      -6    2    3    0    0  103  1.4490240322E+02  2.4756908411E+02 -1.4476001212E+02  3.6502172398E+02  1.7320000000E+02 0. 9.
       5    1    3    0  101    0  6.4466591007E+01 -1.3668889948E+02 -1.1096034612E+01  1.5161120863E+02  4.8000000000E+00 0. 9.
 1000021    2    4    0  103  104 -3.7608015478E+01 -3.8419159300E+02  3.7656985292E+02  1.0193665506E+03  8.6503512500E+02 0. 9.
       1    1    4    0  104    0  7.7801156361E+01  1.8309551885E+01  1.3727695104E+02  1.5885002301E+02  3.3000000000E-01 0. 9.
 1000022    1    5    0    0    0 -1.7711952235E+02  7.8656587084E+01 -9.7157571793E+01  2.5224762473E+02  1.2896157000E+02 0. 9.
      24    2    5    0    0    0 -7.2442612761E+01  1.7634526940E+02 -9.3223900304E+00  2.0712718108E+02  8.0431188000E+01 0. 9.
     -24    2    6    0    0    0  1.5637756436E+02  2.6230886276E+02 -1.3685511650E+02  3.4417783344E+02  8.0431188000E+01 0. 9.
      -5    1    6    0    0  103 -1.1475161142E+01 -1.4739778649E+01 -7.9048956157E+00  2.0843890533E+01  4.8000000000E+00 0. 9.
 1000023    2    8    0    0    0 -3.5677899509E+02 -2.0111448923E+02  2.1377568961E+02  5.3454808106E+02  2.6889276000E+02 0. 9.
       3    1    8    0  103    0  2.3981652853E+02 -2.3891633056E+02  1.8429480524E+02  3.8543197273E+02  5.0000000000E-01 0. 9.
      -3    1    8    0    0  104  7.9354451079E+01  5.5839226781E+01 -2.1500641929E+01  9.9386496854E+01  5.0000000000E-01 0. 9.
     -11    1   11    0    0    0 -6.9467554308E+01  9.3837845847E+01 -3.2836693310E+01  1.2128285469E+02  5.1000000000E-04 0. 9.
      12    1   11    0    0    0 -2.9750584530E+00  8.2507423556E+01  2.3514303279E+01  8.5844326390E+01  0.0000000000E+00 0. 9.
      11    1   12    0    0    0  1.5008933572E+02  2.2161464503E+02 -9.1368639288E+01  2.8282165376E+02  5.1000000000E-04 0. 9.
     -12    1   12    0    0    0  6.2882286357E+00  4.0694217734E+01 -4.5486477213E+01  6.1356179685E+01  0.0000000000E+00 0. 9.
 1000022    1   14    0    0    0 -1.1843007276E+02 -1.9190150099E+01  8.7299153260E+01  1.9658629833E+02  1.2896157000E+02 0. 9.
      23    2   14    0    0    0 -2.3834892233E+02 -1.8192433913E+02  1.2647653635E+02  3.3796178273E+02  9.1187600000E+01 0. 9.
      16    1   22    0    0    0 -6.4482681209E+01 -7.4940909872E+01  8.3351401961E+01  1.2931207352E+02  0.0000000000E+00 0. 9.
     -16    1   22    0    0    0 -1.7386624113E+02 -1.0698342925E+02  4.3125134386E+01  2.0864970921E+02  0.0000000000E+00 0. 9.
</event>
<event>
    17   258  1.000000E+00  1.183149E+03  7.992685E-03  9.099901E-02
      21   -1    0    0  101  102  0.0000000000E+00  0.0000000000E+00  1.8166404045E+03  1.8166404045E+03  0.0000000000E+00 0. 9.
       1   -1    0    0  102    0  0.0000000000E+00  0.0000000000E+00 -8.4162915170E+02  8.4162915170E+02  0.0000000000E+00 0. 9.
 1000021    2    1    2  101  103  4.8129186838E+02  5.4746802213E+02  8.5807778482E+02  1.4198402551E+03  8.6503512500E+02 0. 9.
 1000001    2    1    2  103    0 -4.8129186838E+02 -5.4746802213E+02  1.1693346795E+02  1.2384293010E+03  9.9431916400E+02 0. 9.
 1000024    2    3    0    0    0  2.6140994826E+02  2.3608349255E+02  2.6409947028E+02  5.1594489101E+02  2.6903535800E+02 0. 9.
      -4    1    3    0    0  103  1.6470018395E+01  4.3932698756E+02  4.1131598257E+02  6.0204862845E+02  1.5000000000E+00 0. 9.
       3    1    3    0  101    0  2.0341190172E+02 -1.2794245798E+02  1.8266233196E+02  3.0184673567E+02  5.0000000000E-01 0. 9.
-1000024    2    4    0    0    0 -8.3761336439E+01 -6.5357924724E+02  3.1910481361E+02  7.7999339730E+02  2.6903535800E+02 0. 9.
       2    1    4    0  103    0 -3.9753053194E+02  1.0611122512E+02 -2.0217134566E+02  4.5843590373E+02  3.3000000000E-01 0. 9.
 1000022    1    5    0    0    0  7.5163473671E+01  1.0913256117E+02  1.9069400215E+02  2.6562144619E+02  1.2896157000E+02 0. 9.
      24    2    5    0    0    0  1.8624647459E+02  1.2695093138E+02  7.3405468137E+01  2.5032344483E+02  8.0431188000E+01 0. 9.
 1000022    1    8    0    0    0 -9.5335209712E+01 -3.0009636844E+02  9.3587761718E+01  3.5289713549E+02  1.2896157000E+02 0. 9.
     -24    2    8    0    0    0  1.1573873274E+01 -3.5348287881E+02  2.2551705189E+02  4.2709626181E+02  8.0431188000E+01 0. 9.
      -1    1   11    0    0  104  5.9670440333E+01  8.8995268450E+01  3.1056896813E+01  1.1155876925E+02  3.3000000000E-01 0. 9.
       2    1   11    0  104    0  1.2657603425E+02  3.7955662932E+01  4.2348571324E+01  1.3876467558E+02  3.3000000000E-01 0. 9.
       1    1   13    0  105    0 -9.2140200581E+00 -3.6017011750E+01  8.6238435306E-02  3.7178483536E+01  3.3000000000E-01 0. 9.
      -2    1   13    0    0  105  2.0787893332E+01 -3.1746586706E+02  2.2543081345E+02  3.8991777827E+02  3.3000000000E-01 0. 9.
</event>
<event>
    12   236  1.000000E+00  9.029168E+02  7.967902E-03  9.381472E-02
      -1   -1    0    0    0  101  0.0000000000E+00  0.0000000000E+00  1.0264901244E+03  1.0264901244E+03  0.0000000000E+00 0. 9.
       2   -1    0    0  101    0  0.0000000000E+00  0.0000000000E+00 -1.0183043787E+03  1.0183043787E+03  0.0000000000E+00 0. 9.
 1000035    2    1    2    0    0  6.4316880920E+01 -5.0515733046E+02  4.8370058654E+02  1.0240874440E+03  7.4529742100E+02 0. 9.
 1000037    2    1    2    0    0 -6.4316880920E+01  5.0515733046E+02 -4.7551484083E+02  1.0207070592E+03  7.4592757500E+02 0. 9.
 1000022    1    3    0    0    0  3.0139289137E+02 -2.1477489988E+01  6.2901488054E+01  3.3449460576E+02  1.2896157000E+02 0. 9.
      23    2    3    0    0    0 -2.3707601045E+02 -4.8367984047E+02  4.2079909849E+02  6.8959283820E+02  9.1187600000E+01 0. 9.
 1000022    1    4    0    0    0 -3.1855443153E+02  3.5859596187E+02 -5.2261198152E+01  4.9942998417E+02  1.2896157000E+02 0. 9.
      24    2    4    0    0    0  2.5423755061E+02  1.4656136859E+02 -4.2325364267E+02  5.2127707502E+02  8.0431188000E+01 0. 9.
       4    1    6    0  102    0 -1.8858035583E+02 -3.0759533509E+02  3.1201661466E+02  4.7700530248E+02  1.5000000000E+00 0. 9.
      -4    1    6    0    0  102 -4.8495654617E+01 -1.7608450538E+02  1.0878248383E+02  2.1258753571E+02  1.5000000000E+00 0. 9.
      -3    1    8    0    0  103  2.1898986980E+02  1.5432364423E+02 -3.6582306380E+02  4.5343038523E+02  5.0000000000E-01 0. 9.
       4    1    8    0  103    0  3.5247680813E+01 -7.7622756397E+00 -5.7430578877E+01  6.7846689794E+01  1.5000000000E+00 0. 9.
</event>
<event>
    12   230  1.000000E+00  2.812485E+02  7.862702E-03  1.082709E-01
       2   -1    0    0  101    0  0.0000000000E+00  0.0000000000E+00  1.3010981414E+03  1.3010981414E+03  0.0000000000E+00 0. 9.
      -1   -1    0    0    0  101  0.0000000000E+00  0.0000000000E+00 -6.2886337256E+01  6.2886337256E+01  0.0000000000E+00 0. 9.
 1000024    2    1    2    0    0  7.3554084769E+01  3.6726290993E+01  4.9489144840E+02  5.6925968889E+02  2.6903535800E+02 0. 9.
 1000023    2    1    2    0    0 -7.3554084769E+01 -3.6726290993E+01  7.4332035578E+02  7.9472478981E+02  2.6889276000E+02 0. 9.
 1000022    1    3    0    0    0  1.0475047779E+02  6.1147759722E+01  4.0639020394E+02  4.4327846272E+02  1.2896157000E+02 0. 9.
      24    2    3    0    0    0 -3.1196393018E+01 -2.4421468730E+01  8.8501244460E+01  1.2598122617E+02  8.0431188000E+01 0. 9.
 1000022    1    4    0    0    0 -5.7103706255E+01  4.7099547864E+00  4.5790311424E+02  4.7915484502E+02  1.2896157000E+02 0. 9.
      25    2    4    0    0    0 -1.6450378514E+01 -4.1436245779E+01  2.8541724154E+02  3.1556994479E+02  1.2701893900E+02 0. 9.
     -13    1    6    0    0    0 -2.7818030980E+01 -1.9686842996E-01  9.6356364296E+01  1.0029178286E+02  1.0566000000E-01 0. 9.
      14    1    6    0    0    0 -3.3783620372E+00 -2.4224600300E+01 -7.8551198363E+00  2.5689443306E+01  0.0000000000E+00 0. 9.
       5    1    8    0  102    0  4.0863273123E+01  1.2623001813E+01  4.3879616425E+01  6.1462248598E+01  4.8000000000E+00 0. 9.
      -5    1    8    0    0  102 -5.7313651637E+01 -5.4059247593E+01  2.4153762512E+02  2.5410769619E+02  4.8000000000E+00 0. 9.
</event>
<event>
    23   271  1.000000E+00  1.041077E+03  7.980937E-03  9.231019E-02
       1   -1    0    0  101    0  0.0000000000E+00  0.0000000000E+00  8.0158185958E+02  8.0158185958E+02  0.0000000000E+00 0. 9.
       2   -1    0    0  102    0  0.0000000000E+00  0.0000000000E+00 -1.3655083102E+03  1.3655083102E+03  0.0000000000E+00 0. 9.
 1000001    2    1    2  102    0 -1.9668059918E+02  2.4347616510E+02 -3.8958907281E+02  1.1128405756E+03  9.9431916400E+02 0. 9.
 1000002    2    1    2  101    0  1.9668059918E+02 -2.4347616510E+02 -1.7433737782E+02  1.0542495942E+03  9.9150632100E+02 0. 9.
 1000023    2    3    0    0    0 -8.4532671629E+01  5.6652121837E+02 -4.3501858106E+02  7.6787794973E+02  2.6889276000E+02 0. 9.
       1    1    3    0  102    0 -1.1214792755E+02 -3.2304505328E+02  4.5429508249E+01  3.4496262583E+02  3.3000000000E-01 0. 9.
 1000021    2    4    0  101  103  1.7266183897E+02 -3.2429350222E+02 -2.0951793386E+02  9.6289247495E+02  8.6503512500E+02 0. 9.
       2    1    4    0  103    0  2.4018760201E+01  8.0817337124E+01  3.5180556041E+01  9.1357119289E+01  3.3000000000E-01 0. 9.
 1000022    1    5    0    0    0 -4.2565799726E+01  2.9814470151E+02 -2.7642663820E+02  4.2865473657E+02  1.2896157000E+02 0. 9.
      25    2    5    0    0    0 -4.1966871902E+01  2.6837651686E+02 -1.5859194286E+02  3.3922321316E+02  1.2701893900E+02 0. 9.
-1000024    2    7    0    0    0 -7.5213535076E+01  7.8741306208E+01  2.8205004272E+01  2.9160386706E+02  2.6903535800E+02 0. 9.
       6    2    7    0  101    0  2.7461980186E+01 -1.9497774189E+01 -1.8054408860E+01  1.7736551309E+02  1.7320000000E+02 0. 9.
      -5    1    7    0    0  103  2.2041339386E+02 -3.8353703424E+02 -2.1966852928E+02  4.9392309480E+02  4.8000000000E+00 0. 9.
       5    1   10    0  104    0 -5.9307023522E+01  5.8799734074E+01 -1.6185735543E+01  8.5204165399E+01  4.8000000000E+00 0. 9.
      -5    1   10    0    0  104  1.7340151620E+01  2.0957678279E+02 -1.4240620731E+02  2.5401904776E+02  4.8000000000E+00 0. 9.
 1000022    1   11    0    0    0 -6.2351108032E+01 -2.1998022990E+01  6.2140517007E+01  1.5768355678E+02  1.2896157000E+02 0. 9.
     -24    2   11    0    0    0 -1.2862427044E+01  1.0073932920E+02 -3.3935512734E+01  1.3392031028E+02  8.0431188000E+01 0. 9.
      24    2   12    0    0    0 -1.8368017180E+00 -3.5448962230E+01  5.0203632552E+01  1.0124022663E+02  8.0431188000E+01 0. 9.
       5    1   12    0  101    0  2.9298781904E+01  1.5951188041E+01 -6.8258041412E+01  7.6125286459E+01  4.8000000000E+00 0. 9.
      11    1   17    0    0    0  1.2806964747E+01 -8.2189572372E+00 -1.3051480764E+01  2.0047711951E+01  5.1000000000E-04 0. 9.
     -12    1   17    0    0    0 -2.5669391791E+01  1.0895828643E+02 -2.0884031971E+01  1.1387259832E+02  0.0000000000E+00 0. 9.
     -13    1   18    0    0    0  3.0844999764E+01 -4.3611318548E+01  3.7376883268E+01  6.5195120084E+01  1.0566000000E-01 0. 9.
      14    1   18    0    0    0 -3.2681801482E+01  8.1623563177E+00  1.2826749284E+01  3.6045106547E+01  0.0000000000E+00 0. 9.
</event>
<event>
    32   258  1.000000E+00  9.348843E+02  7.971084E-03  9.344256E-02
       2   -1    0    0  101    0  0.0000000000E+00  0.0000000000E+00  1.3747580952E+03  1.3747580952E+03  0.0000000000E+00 0. 9.
      21   -1    0    0  102  101  0.0000000000E+00  0.0000000000E+00 -7.4495505303E+02  7.4495505303E+02  0.0000000000E+00 0. 9.
 1000002    2    1    2  103    0 -8.9632333812E+01  1.7015076821E+01  7.4325589852E+02  1.2425126089E+03  9.9150632100E+02 0. 9.
 1000021    2    1    2  102  103  8.9632333812E+01 -1.7015076821E+01 -1.1345285631E+02  8.7720053933E+02  8.6503512500E+02 0. 9.
 1000021    2    3    0  103  104 -1.7939876272E+02  7.2368429377E+01  6.9576161134E+02  1.1268500756E+03  8.6503512500E+02 0. 9.
       2    1    3    0  104    0  8.9766428908E+01 -5.5353352556E+01  4.7494287181E+01  1.1566253332E+02  3.3000000000E-01 0. 9.
 1000024    2    4    0    0    0  7.1245028756E+01 -4.2632607333E+01  1.4233929847E+02  3.1548992547E+02  2.6903535800E+02 0. 9.
      -6    2    4    0    0  103  3.9128003802E+01 -1.0926079325E+02  6.0594925584E+01  2.1711496178E+02  1.7320000000E+02 0. 9.
       5    1    4    0  102    0 -2.0740698746E+01  1.3487832376E+02 -3.1638708037E+02  3.4459565207E+02  4.8000000000E+00 0. 9.
 1000023    2    5    0    0    0 -1.8199719438E+02 -1.0300485398E+02  2.7129329468E+02  4.3547255577E+02  2.6889276000E+02 0. 9.
       6    2    5    0  103    0 -8.1073028525E+01  1.0294477467E+02 -2.8455988458E+00  2.1720220998E+02  1.7320000000E+02 0. 9.
      -6    2    5    0    0  104  8.3671460184E+01  7.2428508684E+01  4.2731391550E+02  4.7417530988E+02  1.7320000000E+02 0. 9.
 1000022    1    7    0    0    0 -2.8153459838E+01 -1.9468894223E+01  1.2775787152E+02  1.8472903241E+02  1.2896157000E+02 0. 9.
      24    2    7    0    0    0  9.9398488594E+01 -2.3163713111E+01  1.4581426956E+01  1.3076089306E+02  8.0431188000E+01 0. 9.
     -24    2    8    0    0    0  6.2298109904E+00 -1.0603115644E+02 -1.5384998109E+01  1.3411670608E+02  8.0431188000E+01 0. 9.
      -5    1    8    0    0  103  3.2898192811E+01 -3.2296368063E+00  7.5979923693E+01  8.2998255696E+01  4.8000000000E+00 0. 9.
 1000022    1   10    0    0    0 -4.9656958096E+01 -4.5041636911E+01  1.4526174135E+02  2.0549117397E+02  1.2896157000E+02 0. 9.
      25    2   10    0    0    0 -1.3234023628E+02 -5.7963217067E+01  1.2603155333E+02  2.2998138180E+02  1.2701893900E+02 0. 9.
      24    2   11    0    0    0  9.4759549515E+00  2.9799798081E+01 -3.9729828047E+01  9.5002404852E+01  8.0431188000E+01 0. 9.
       5    1   11    0  103    0 -9.0548983476E+01  7.3144976590E+01  3.6884229201E+01  1.2219980513E+02  4.8000000000E+00 0. 9.
     -24    2   12    0    0    0 -2.3140063428E+01  4.4963554737E+01  1.8900439675E+02  2.1153964589E+02  8.0431188000E+01 0. 9.
      -5    1   12    0    0  104  1.0681152361E+02  2.7464953948E+01  2.3830951875E+02  2.6263566399E+02  4.8000000000E+00 0. 9.
      -3    1   14    0    0  105 -4.6855941067E+00 -9.7836864165E-01 -1.8649900967E+01  1.9260861959E+01  5.0000000000E-01 0. 9.
       4    1   14    0  105    0  1.0408408270E+02 -2.2185344469E+01  3.3231327923E+01  1.1150003110E+02  1.5000000000E+00 0. 9.
      11    1   15    0    0    0 -5.7645574036E+00 -1.1618749122E+02 -7.6022595307E+00  1.1657854686E+02  5.1000000000E-04 0. 9.
     -12    1   15    0    0    0  1.1994368394E+01  1.0156334777E+01 -7.7827385786E+00  1.7538159226E+01  0.0000000000E+00 0. 9.
       5    1   18    0  106    0 -1.3126141080E+02 -8.9937745685E+01  9.6349309650E+01  1.8607682697E+02  4.8000000000E+00 0. 9.
      -5    1   18    0    0  106 -1.0788254861E+00  3.1974528618E+01  2.9682243684E+01  4.3904554831E+01  4.8000000000E+00 0. 9.
     -11    1   19    0    0    0  2.2284183542E+01 -2.1844625904E+01 -2.4449542576E+01  3.9642813339E+01  5.1000000000E-04 0. 9.
      12    1   19    0    0    0 -1.2808228591E+01  5.1644423985E+01 -1.5280285471E+01  5.5359591513E+01  0.0000000000E+00 0. 9.
       1    1   21    0  107    0  3.1549059725E+00  4.3966330617E+01  3.7818319910E+01  5.8080339879E+01  3.3000000000E-01 0. 9.
      -2    1   21    0    0  107 -2.6294969400E+01  9.9722411918E-01  1.5118607683E+02  1.5345930601E+02  3.3000000000E-01 0. 9.
</event>
<event>
    12   226  1.000000E+00  3.262123E+02  7.875924E-03  1.061903E-01
       2   -1    0    0  101    0  0.0000000000E+00  0.0000000000E+00  7.7850336263E+02  7.7850336263E+02  0.0000000000E+00 0. 9.
      -2   -1    0    0    0  101  0.0000000000E+00  0.0000000000E+00 -2.5185464962E+02  2.5185464962E+02  0.0000000000E+00 0. 9.
 1000024    2    1    2    0    0  1.8403875053E+02 -1.2812886435E+01  6.1169436018E+02  6.9324198220E+02  2.6903535800E+02 0. 9.
-1000024    2    1    2    0    0 -1.8403875053E+02  1.2812886435E+01 -8.5045647164E+01  3.3711603004E+02  2.6903535800E+02 0. 9.
 1000022    1    3    0    0    0  1.7177117129E+02  3.4393616238E+01  3.2145220582E+02  3.8813768599E+02  1.2896157000E+02 0. 9.
      24    2    3    0    0    0  1.2267579247E+01 -4.7206502673E+01  2.9024215436E+02  3.0510429621E+02  8.0431188000E+01 0. 9.
 1000022    1    4    0    0    0 -1.3544552555E+02 -5.2469199280E+01  5.1619941895E-01  1.9424175726E+02  1.2896157000E+02 0. 9.
     -24    2    4    0    0    0 -4.8593224983E+01  6.5282085715E+01 -8.5561846583E+01  1.4287427278E+02  8.0431188000E+01 0. 9.
      -3    1    6    0    0  102  2.4195338780E+01 -6.5798571728E+01  1.9203185257E+02  2.0442932486E+02  5.0000000000E-01 0. 9.
       4    1    6    0  102    0 -1.1927759534E+01  1.8592069055E+01  9.8210301787E+01  1.0067497135E+02  1.5000000000E+00 0. 9.
       1    1    8    0  103    0  5.6561549104E+00  1.2844651858E+01 -6.2383712400E+01  6.3943831935E+01  3.3000000000E-01 0. 9.
      -2    1    8    0    0  103 -5.4249379894E+01  5.2437433857E+01 -2.3178134183E+01  7.8930440849E+01  3.3000000000E-01 0. 9.
</event>
<event>
    12   226  1.000000E+00  2.940667E+02  7.866671E-03  1.076372E-01
       1   -1    0    0  101    0  0.0000000000E+00  0.0000000000E+00  1.5580601838E+02  1.5580601838E+02  0.0000000000E+00 0. 9.
      -1   -1    0    0    0  101  0.0000000000E+00  0.0000000000E+00 -5.6526096153E+02  5.6526096153E+02  0.0000000000E+00 0. 9.
-1000024    2    1    2    0    0  4.7168597644E+01 -1.0895105271E+02 -2.5325877573E+02  3.8809179305E+02  2.6903535800E+02 0. 9.
 1000024    2    1    2    0    0 -4.7168597644E+01  1.0895105271E+02 -1.5619616742E+02  3.3297518686E+02  2.6903535800E+02 0. 9.
 1000022    1    3    0    0    0  5.6598398407E+01 -4.2999155918E+01 -2.4168719456E+02  2.8301253093E+02  1.2896157000E+02 0. 9.
     -24    2    3    0    0    0 -9.4298007629E+00 -6.5951896795E+01 -1.1571581171E+01  1.0507926212E+02  8.0431188000E+01 0. 9.
 1000022    1    4    0    0    0 -1.1090038731E+02  7.2774015815E+01 -9.1639814601E+01  2.0645555318E+02  1.2896157000E+02 0. 9.
      24    2    4    0    0    0  6.3731789664E+01  3.6177036898E+01 -6.4556352821E+01  1.2651963367E+02  8.0431188000E+01 0. 9.
       1    1    6    0  102    0  1.0789619833E+01 -3.5036214133E+01  3.1499945288E+01  4.8335366452E+01  3.3000000000E-01 0. 9.
      -2    1    6    0    0  102 -2.0219420596E+01 -3.0915682662E+01 -4.3071526460E+01  5.6743895665E+01  3.3000000000E-01 0. 9.
      -1    1    8    0    0  103 -1.9417730623E+01  8.1354095436E+00 -1.2889428496E+01  2.4687636945E+01  3.3000000000E-01 0. 9.
       2    1    8    0  103    0  8.3149520287E+01  2.8041627355E+01 -5.1666924325E+01  1.0183199673E+02  3.3000000000E-01 0. 9.
</event>
<event>
    12   226  1.000000E+00  4.685365E+02  7.908390E-03  1.014318E-01
      -2   -1    0    0    0  101  0.0000000000E+00  0.0000000000E+00  4.9890214466E+02  4.9890214466E+02  0.0000000000E+00 0. 9.
       2   -1    0    0  101    0  0.0000000000E+00  0.0000000000E+00 -5.7402481547E+02  5.7402481547E+02  0.0000000000E+00 0. 9.
-1000024    2    1    2    0    0 -3.7562958460E+02 -7.7774423121E+01  2.2163956135E+02  5.1831512107E+02  2.6903535800E+02 0. 9.
 1000024    2    1    2    0    0  3.7562958460E+02  7.7774423121E+01 -2.9676223216E+02  5.5461183905E+02  2.6903535800E+02 0. 9.
 1000022    1    3    0    0    0 -8.4536693180E+01 -4.2445333355E+01  4.2809486486E+01  1.6556508535E+02  1.2896157000E+02 0. 9.
     -24    2    3    0    0    0 -2.9109289142E+02 -3.5329089766E+01  1.7883007487E+02  3.5275003572E+02  8.0431188000E+01 0. 9.
 1000022    1    4    0    0    0  3.5345063804E+02  5.2452470045E+01 -2.5788989961E+02  4.5914801753E+02  1.2896157000E+02 0. 9.
      24    2    4    0    0    0  2.2178946568E+01  2.5321953075E+01 -3.8872332554E+01  9.5463821523E+01  8.0431188000E+01 0. 9.
       1    1    6    0  102    0 -8.5765617666E+01 -1.8830973475E+01  9.7696251780E+01  1.3135833909E+02  3.3000000000E-01 0. 9.
      -2    1    6    0    0  102 -2.0532727376E+02 -1.6498116291E+01  8.1133823085E+01  2.2139169663E+02  3.3000000000E-01 0. 9.
      -1    1    8    0    0  103 -2.4468743967E-01 -1.1822522528E+01 -4.9415593464E+01  5.0811826264E+01  3.3000000000E-01 0. 9.
       2    1    8    0  103    0  2.2423634008E+01  3.7144475603E+01  1.0543260911E+01  4.4651995258E+01  3.3000000000E-01 0. 9.
</event>
<event>
    19   272  1.000000E+00  1.009188E+03  7.978085E-03  9.263480E-02
       2   -1    0    0  101    0  0.0000000000E+00  0.0000000000E+00  1.0477819083E+03  1.0477819083E+03  0.0000000000E+00 0. 9.
       3   -1    0    0  102    0  0.0000000000E+00  0.0000000000E+00 -9.9454075732E+02  9.9454075732E+02  0.0000000000E+00 0. 9.
 2000002    2    1    2  102    0 -1.4847024704E+02 -1.1549623354E+02  1.8029751712E+02  1.0249702181E+03  9.9129912700E+02 0. 9.
 2000003    2    1    2  101    0  1.4847024704E+02  1.1549623354E+02 -1.2705636615E+02  1.0173524475E+03  9.9170554500E+02 0. 9.
 1000021    2    3    0  102  103 -4.4026458349E+01 -9.3150750031E+01  2.3866997730E+02  9.0325218893E+02  8.6503512500E+02 0. 9.
       2    1    3    0  103    0 -1.0444378869E+02 -2.2345483505E+01 -5.8372460177E+01  1.2171802921E+02  3.3000000000E-01 0. 9.
 1000022    1    4    0    0    0 -1.2332828578E+02  4.6562327727E+02 -2.4939938474E+02  5.5753568680E+02  1.2896157000E+02 0. 9.
       3    1    4    0  101    0  2.7179853282E+02 -3.5012704374E+02  1.2234301859E+02  4.5981676067E+02  5.0000000000E-01 0. 9.
-1000024    2    5    0    0    0 -4.4498098806E+01  2.5153603601E+02 -9.7491384283E+00  3.7111390133E+02  2.6903535800E+02 0. 9.
       6    2    5    0  102    0  3.7216086135E+01 -2.5939651673E+02  5.6890303590E+01  3.1922771904E+02  1.7320000000E+02 0. 9.
      -5    1    5    0    0  103 -3.6744445678E+01 -8.5290269303E+01  1.9152881214E+02  2.1291056856E+02  4.8000000000E+00 0. 9.
 1000022    1    9    0    0    0 -2.3469590828E+01  4.1428477025E+01  3.2453301550E+01  1.4124957954E+02  1.2896157000E+02 0. 9.
     -24    2    9    0    0    0 -2.1028507978E+01  2.1010755898E+02 -4.2202439978E+01  2.2986432179E+02  8.0431188000E+01 0. 9.
      24    2   10    0    0    0  7.3463828403E+01 -1.0791937731E+02  5.6450610040E+01  1.6339942919E+02  8.0431188000E+01 0. 9.
       5    1   10    0  102    0 -3.6247742268E+01 -1.5147713942E+02  4.3969354952E-01  1.5582828985E+02  4.8000000000E+00 0. 9.
       1    1   13    0  104    0  1.4381594044E+01  1.2105999775E+01  1.1027717167E+01  2.1796901700E+01  3.3000000000E-01 0. 9.
      -2    1   13    0    0  104 -3.5410102022E+01  1.9800155921E+02 -5.3230157145E+01  2.0806742009E+02  3.3000000000E-01 0. 9.
      -1    1   14    0    0  105  5.6312230044E+01 -6.2833090397E+01 -5.8826884837E+00  8.4580017884E+01  3.3000000000E-01 0. 9.
       2    1   14    0  105    0  1.7151598358E+01 -4.5086286917E+01  6.2333298524E+01  7.8819411309E+01  3.3000000000E-01 0. 9.
</event>
<event>
    17   258  1.000000E+00  9.408488E+02  7.971665E-03  9.337485E-02
      21   -1    0    0  101  102  0.0000000000E+00  0.0000000000E+00  7.3983959244E+02  7.3983959244E+02  0.0000000000E+00 0. 9.
       2   -1    0    0  102    0  0.0000000000E+00  0.0000000000E+00 -1.2714795651E+03  1.2714795651E+03  0.0000000000E+00 0. 9.
 1000021    2    1    2  101  103 -4.7871909505E+01 -1.3122276869E+02  2.9598344344E+00  8.7624520703E+02  8.6503512500E+02 0. 9.
 1000002    2    1    2  103    0  4.7871909505E+01  1.3122276869E+02 -5.3459980707E+02  1.1350739505E+03  9.9150632100E+02 0. 9.
 1000024    2    3    0    0    0 -3.1343713121E+02 -1.9853849600E+02  6.5694793034E+01  4.6298617615E+02  2.6903535800E+02 0. 9.
      -4    1    3    0    0  103  3.2868465350E+02  7.9578351006E+01 -7.8235160653E+01  3.4711569506E+02  1.5000000000E+00 0. 9.
       3    1    3    0  101    0 -6.3119431795E+01 -1.2262623702E+01  1.5500202054E+01  6.6143335823E+01  5.0000000000E-01 0. 9.
 1000023    2    4    0    0    0  4.1459381796E+02  3.1007712016E+02 -3.9202938692E+02  7.0286998152E+02  2.6889276000E+02 0. 9.
       2    1    4    0  103    0 -3.6672190845E+02 -1.7885435146E+02 -1.4257042014E+02  4.3220396895E+02  3.3000000000E-01 0. 9.
 1000022    1    5    0    0    0 -5.1345615185E+01 -6.5815887110E+01  2.6339451426E+01  1.5586197879E+02  1.2896157000E+02 0. 9.
      24    2    5    0    0    0 -2.6209151603E+02 -1.3272260889E+02  3.9355341608E+01  3.0712419735E+02  8.0431188000E+01 0. 9.
 1000022    1    8    0    0    0  1.9627439189E+02  1.1531496897E+02 -2.1108252115E+02  3.3616676852E+02  1.2896157000E+02 0. 9.
      25    2    8    0    0    0  2.1831942607E+02  1.9476215119E+02 -1.8094686577E+02  3.6670321301E+02  1.2701893900E+02 0. 9.
      -1    1   11    0    0  104 -9.1829612221E+01 -8.7466910189E+01  1.0021710674E+00  1.2682370167E+02  3.3000000000E-01 0. 9.
       2    1   11    0  104    0 -1.7026190381E+02 -4.5255698697E+01  3.8353170541E+01  1.8030049568E+02  3.3000000000E-01 0. 9.
       5    1   13    0  105    0  3.1656149291E+00  5.0071433286E+01  1.5436492882E-01  5.0400727948E+01  4.8000000000E+00 0. 9.
      -5    1   13    0    0  105  2.1515381114E+02  1.4469071790E+02 -1.8110123070E+02  3.1630248506E+02  4.8000000000E+00 0. 9.
</event>
<event>
    13   259  1.000000E+00  9.313093E+02  7.970733E-03  9.348340E-02
      21   -1    0    0  101  102  0.0000000000E+00  0.0000000000E+00  6.5472975171E+02  6.5472975171E+02  0.0000000000E+00 0. 9.
       1   -1    0    0  102    0  0.0000000000E+00  0.0000000000E+00 -1.3812711367E+03  1.3812711367E+03  0.0000000000E+00 0. 9.
 1000021    2    1    2  101  103 -7.4926599073E+00  3.7389901286E+01 -5.5599762736E+02  1.0290156820E+03  8.6503512500E+02 0. 9.
 2000001    2    1    2  103    0  7.4926599073E+00 -3.7389901286E+01 -1.7054375762E+02  1.0069852064E+03  9.9170554500E+02 0. 9.
 1000023    2    3    0    0    0 -3.5411143470E+02 -1.1216058374E+02 -2.7498153700E+02  5.3468969207E+02  2.6889276000E+02 0. 9.
       3    1    3    0  101    0  1.1435558485E+02  7.4712243730E+01 -1.8972865809E+02  2.3378693901E+02  5.0000000000E-01 0. 9.
      -3    1    3    0    0  103  2.3226318994E+02  7.4838241294E+01 -9.1287432262E+01  2.6053905091E+02  5.0000000000E-01 0. 9.
 1000022    1    4    0    0    0  3.2503271365E+01  4.6682304642E+02 -5.0049894573E+01  4.8797161578E+02  1.2896157000E+02 0. 9.
       1    1    4    0  103    0 -2.5010611458E+01 -5.0421294771E+02 -1.2049386305E+02  5.1901359063E+02  3.3000000000E-01 0. 9.
 1000022    1    5    0    0    0 -2.3260339402E+02 -4.8137673956E+01 -1.4333633979E+02  3.0593784893E+02  1.2896157000E+02 0. 9.
      25    2    5    0    0    0 -1.2150804068E+02 -6.4022909782E+01 -1.3164519721E+02  2.2875184314E+02  1.2701893900E+02 0. 9.
       5    1   11    0  104    0 -6.0167636732E+01 -6.4410239426E+01 -5.5502488501E+00  8.8445851882E+01  4.8000000000E+00 0. 9.
      -5    1   11    0    0  104 -6.1340403947E+01  3.8732964464E-01 -1.2609494836E+02  1.4030599126E+02  4.8000000000E+00 0. 9.
</event>
<event>
    12   226  1.000000E+00  5.863595E+02  7.928640E-03  9.869178E-02
      -2   -1    0    0    0  101  0.0000000000E+00  0.0000000000E+00  2.6839566828E+02  2.6839566828E+02  0.0000000000E+00 0. 9.
       2   -1    0    0  101    0  0.0000000000E+00  0.0000000000E+00 -1.2965372816E+03  1.2965372816E+03  0.0000000000E+00 0. 9.
-1000024    2    1    2    0    0 -4.8627842731E+02  1.8700476685E+02 -4.2844159136E+02  7.2620913844E+02  2.6903535800E+02 0. 9.
 1000024    2    1    2    0    0  4.8627842731E+02 -1.8700476685E+02 -5.9970002195E+02  8.3872381144E+02  2.6903535800E+02 0. 9.
 1000022    1    3    0    0    0 -1.1554244085E+02  3.5430932588E+01 -1.0927464852E+02  2.0779182363E+02  1.2896157000E+02 0. 9.
     -24    2    3    0    0    0 -3.7073598646E+02  1.5157383427E+02 -3.1916694283E+02  5.1841731481E+02  8.0431188000E+01 0. 9.
 1000022    1    4    0    0    0  3.1582349649E+02 -1.2068609687E+02 -4.9496461456E+02  6.1313185459E+02  1.2896157000E+02 0. 9.
      24    2    4    0    0    0  1.7045493082E+02 -6.6318669988E+01 -1.0473540739E+02  2.2559195685E+02  8.0431188000E+01 0. 9.
       1    1    6    0  102    0 -2.4682879298E+02  1.3523864974E+02 -2.4458778061E+02  3.7287697267E+02  3.3000000000E-01 0. 9.
      -2    1    6    0    0  102 -1.2390719348E+02  1.6335184524E+01 -7.4579162223E+01  1.4554034213E+02  3.3000000000E-01 0. 9.
      -3    1    8    0    0  103  1.4257139930E+02 -6.4557905610E+01 -1.1663445524E+02  1.9518753348E+02  5.0000000000E-01 0. 9.
       4    1    8    0  103    0  2.7883531518E+01 -1.7607643782E+00  1.1899047843E+01  3.0404423374E+01  1.5000000000E+00 0. 9.
</event>
<event>
    28   259  1.000000E+00  1.020515E+03  7.979108E-03  9.251808E-02
       2   -1    0    0  101    0  0.0000000000E+00  0.0000000000E+00  1.8086988681E+03  1.8086988681E+03  0.0000000000E+00 0. 9.
      21   -1    0    0  102  101  0.0000000000E+00  0.0000000000E+00 -5.7398232759E+02  5.7398232759E+02  0.0000000000E+00 0. 9.
 2000002    2    1    2  103    0  3.7742175167E+02  1.8309438170E+02  6.5716336652E+02  1.2611535913E+03  9.9129912700E+02 0. 9.
 1000021    2    1    2  102  103 -3.7742175167E+02 -1.8309438170E+02  5.7755317399E+02  1.1215276044E+03  8.6503512500E+02 0. 9.
 1000021    2    3    0  103  104  2.7069734569E+02  2.5038937193E+02  5.1906627504E+02  1.0740984387E+03  8.6503512500E+02 0. 9.
       2    1    3    0  104    0  1.0672440598E+02 -6.7294990227E+01  1.3809709148E+02  1.8705515261E+02  3.3000000000E-01 0. 9.
 1000024    2    4    0    0    0  6.0120113692E+01 -1.1159347533E+02  2.1770131659E+02  3.6856670889E+02  2.6903535800E+02 0. 9.
      -6    2    4    0    0  103 -3.4067369175E+02  9.0624352492E+01  3.9915515433E+02  5.5999501314E+02  1.7320000000E+02 0. 9.
       5    1    4    0  102    0 -9.6868173615E+01 -1.6212525886E+02 -3.9303296930E+01  1.9296588240E+02  4.8000000000E+00 0. 9.
 1000024    2    5    0    0    0 -8.0290195929E+01  1.5689933833E+01  2.9879949423E+02  4.1030945784E+02  2.6903535800E+02 0. 9.
      -6    2    5    0    0  104  2.3078520461E+02  1.6384034120E+02 -7.2310801283E+01  3.3960647823E+02  1.7320000000E+02 0. 9.
       5    1    5    0  103    0  1.2020233701E+02  7.0859096890E+01  2.9257758209E+02  3.2418250258E+02  4.8000000000E+00 0. 9.
 1000022    1    7    0    0    0  1.0366640163E+02 -1.8390878870E+01  1.3066802350E+02  2.1163687333E+02  1.2896157000E+02 0. 9.
      24    2    7    0    0    0 -4.3546287938E+01 -9.3202596458E+01  8.7033293087E+01  1.5692983556E+02  8.0431188000E+01 0. 9.
     -24    2    8    0    0    0 -8.2041150774E+01  2.3193833468E+00  1.5877838123E+02  1.9599969467E+02  8.0431188000E+01 0. 9.
      -5    1    8    0    0  103 -2.5863254098E+02  8.8304969145E+01  2.4037677310E+02  3.6399531848E+02  4.8000000000E+00 0. 9.
 1000022    1   10    0    0    0 -3.3122954733E+01 -3.9162068434E+01  6.6164054562E+01  1.5375163865E+02  1.2896157000E+02 0. 9.
      24    2   10    0    0    0 -4.7167241196E+01  5.4852002267E+01  2.3263543967E+02  2.5655781919E+02  8.0431188000E+01 0. 9.
     -24    2   11    0    0    0  2.2005159198E+02  1.6116639643E+02 -1.9060954297E+01  2.8500843225E+02  8.0431188000E+01 0. 9.
      -5    1   11    0    0  104  1.0733612629E+01  2.6739447739E+00 -5.3249846986E+01  5.4598045979E+01  4.8000000000E+00 0. 9.
      -3    1   14    0    0  105 -2.4630166090E+00 -2.1457659516E+01 -1.4474688532E+01  2.6005080480E+01  5.0000000000E-01 0. 9.
       4    1   14    0  105    0 -4.1083271329E+01 -7.1744936943E+01  1.0150798162E+02  1.3092475508E+02  1.5000000000E+00 0. 9.
       3    1   15    0  106    0 -7.7682771426E+01  3.1774863945E+01  1.2869554768E+02  1.5364585562E+02  5.0000000000E-01 0. 9.
      -4    1   15    0    0  106 -4.3583793480E+00 -2.9455480598E+01  3.0082833551E+01  4.2353839050E+01  1.5000000000E+00 0. 9.
     -13    1   18    0    0    0 -1.5263052716E+00  5.8700614145E+01  9.6909611393E+01  1.1331185134E+02  1.0566000000E-01 0. 9.
      14    1   18    0    0    0 -4.5640935924E+01 -3.8486118781E+00  1.3572582828E+02  1.4324596786E+02  0.0000000000E+00 0. 9.
       3    1   19    0  107    0  2.9639866269E+01  9.9520684307E-02 -1.9722220908E+01  3.5605443044E+01  5.0000000000E-01 0. 9.
      -4    1   19    0    0  107  1.9041172571E+02  1.6106687575E+02  6.6126661121E-01  2.4940298920E+02  1.5000000000E+00 0. 9.
</event>
<event>
    12   230  1.000000E+00  2.871717E+02  7.864558E-03  1.079736E-01
       2   -1    0    0  101    0  0.0000000000E+00  0.0000000000E+00  3.1395615793E+02  3.1395615793E+02  0.0000000000E+00 0. 9.
      -1   -1    0    0    0  101  0.0000000000E+00  0.0000000000E+00 -4.6273468048E+02  4.6273468048E+02  0.0000000000E+00 0. 9.
 1000024    2    1    2    0    0  8.7483953369E+01 -4.9724206463E+01  1.8095029930E+02  3.3948339205E+02  2.6903535800E+02 0. 9.
 1000023    2    1    2    0    0 -8.7483953369E+01  4.9724206463E+01 -3.2972882186E+02  4.3720744636E+02  2.6889276000E+02 0. 9.
 1000022    1    3    0    0    0  1.3914987598E+01  2.9446954202E+01  1.5145835474E+02  2.0157249254E+02  1.2896157000E+02 0. 9.
      24    2    3    0    0    0  7.3568965771E+01 -7.9171160664E+01  2.9491944559E+01  1.3791089951E+02  8.0431188000E+01 0. 9.
 1000022    1    4    0    0    0 -3.6268576574E+00  8.2795921523E+00 -1.4332365484E+02  1.9301415056E+02  1.2896157000E+02 0. 9.
      25    2    4    0    0    0 -8.3857095712E+01  4.1444614310E+01 -1.8640516702E+02  2.4419329580E+02  1.2701893900E+02 0. 9.
      -1    1    6    0    0  102  6.2301369306E+01 -6.3159760956E+01 -1.4372928947E+01  8.9873833834E+01  3.3000000000E-01 0. 9.
       2    1    6    0  102    0  1.1267596465E+01 -1.6011399708E+01  4.3864873506E+01  4.8037065672E+01  3.3000000000E-01 0. 9.
       5    1    8    0  103    0 -5.8176086133E+01  8.6982742550E+01 -1.3305660656E+02  1.6934448633E+02  4.8000000000E+00 0. 9.
      -5    1    8    0    0  103 -2.5681009579E+01 -4.5538128239E+01 -5.3348560453E+01  7.4848809469E+01  4.8000000000E+00 0. 9.
</event>
<event>
    18   244  1.000000E+00  1.259492E+03  7.998440E-03  9.037156E-02
      21   -1    0    0  101  102  0.0000000000E+00  0.0000000000E+00  1.6608811382E+03  1.6608811382E+03  0.0000000000E+00 0. 9.
      21   -1    0    0  102  103  0.0000000000E+00  0.0000000000E+00 -9.9313983358E+02  9.9313983358E+02  0.0000000000E+00 0. 9.
 1000021    2    1    2  101  104  7.5207907351E+02  5.2193141573E+02  7.4188586265E+01  1.2616754929E+03  8.6503512500E+02 0. 9.
 1000021    2    1    2  104  103 -7.5207907351E+02 -5.2193141573E+02  5.9355271831E+02  1.3923454788E+03  8.6503512500E+02 0. 9.
 1000023    2    3    0    0    0  4.9771959352E+02  5.1497106586E+02  1.7801663568E+02  7.8543824163E+02  2.6889276000E+02 0. 9.
       3    1    3    0  101    0  2.1081504522E+02 -1.4934114210E+01 -2.4695229549E+02  3.2504107019E+02  5.0000000000E-01 0. 9.
      -3    1    3    0    0  104  4.3544434766E+01  2.1894464082E+01  1.4312424608E+02  1.5119618107E+02  5.0000000000E-01 0. 9.
 1000024    2    4    0    0    0 -7.5288593520E+02 -1.5618171934E+02  5.2560985143E+02  9.6947186687E+02  2.6903535800E+02 0. 9.
      -2    1    4    0    0  103  4.4121803335E+01 -6.2652141677E+01 -5.3535323846E+01  9.3478148171E+01  3.3000000000E-01 0. 9.
       1    1    4    0  104    0 -4.3314941643E+01 -3.0309755472E+02  1.2147819073E+02  3.2939546380E+02  3.3000000000E-01 0. 9.
 1000022    1    5    0    0    0  3.0834525497E+02  2.6427253945E+02  9.6005119531E+01  4.3676634587E+02  1.2896157000E+02 0. 9.
      25    2    5    0    0    0  1.8937433856E+02  2.5069852641E+02  8.2011516150E+01  3.4867189576E+02  1.2701893900E+02 0. 9.
 1000022    1    8    0    0    0 -6.6241451999E+02 -1.0783310101E+02  4.2471101612E+02  8.0463128681E+02  1.2896157000E+02 0. 9.
      24    2    8    0    0    0 -9.0471415215E+01 -4.8348618322E+01  1.0089883531E+02  1.6484058006E+02  8.0431188000E+01 0. 9.
      21    1   12    0  105  106  1.8986089778E+02  2.5983422624E+02  6.3487208552E+01  3.2801160236E+02  0.0000000000E+00 0. 9.
      21    1   12    0  106  105 -4.8655922157E-01 -9.1356998366E+00  1.8524307598E+01  2.0660293400E+01  0.0000000000E+00 0. 9.
     -13    1   14    0    0    0 -2.0516566802E+01  1.9392157110E+01  4.3338545730E+01  5.1722586756E+01  1.0566000000E-01 0. 9.
      14    1   14    0    0    0 -6.9954848413E+01 -6.7740775432E+01  5.7560289580E+01  1.1311799330E+02  0.0000000000E+00 0. 9.
</event>
<event>
    24   259  1.000000E+00  1.130293E+03  7.988484E-03  9.146316E-02
       2   -1    0    0  101    0  0.0000000000E+00  0.0000000000E+00  1.9355383169E+03  1.9355383169E+03  0.0000000000E+00 0. 9.
      21   -1    0    0  102  101  0.0000000000E+00  0.0000000000E+00 -6.6856052474E+02  6.6856052474E+02  0.0000000000E+00 0. 9.
 2000002    2    1    2  103    0 -5.8201750592E+02 -2.7080844399E+02  8.2043111358E+02  1.4380065236E+03  9.9129912700E+02 0. 9.
 1000021    2    1    2  102  103  5.8201750592E+02  2.7080844399E+02  4.4654667854E+02  1.1660923180E+03  8.6503512500E+02 0. 9.
 1000021    2    3    0  103  104 -5.3672802810E+02 -2.9217108600E+02  8.6767984188E+02  1.3691584989E+03  8.6503512500E+02 0. 9.
       2    1    3    0  104    0 -4.5289477822E+01  2.1362642018E+01 -4.7248728298E+01  6.8848024671E+01  3.3000000000E-01 0. 9.
-1000024    2    4    0    0    0  2.0474797789E+02  1.0884835158E+01 -1.3944414754E+02  3.6587553652E+02  2.6903535800E+02 0. 9.
       2    1    4    0  102    0  2.6206999594E+01 -6.2809506269E+01  7.5286700464E+01  1.0148909829E+02  3.3000000000E-01 0. 9.
      -1    1    4    0    0  103  3.5106252845E+02  3.2273311510E+02  5.1070412562E+02  6.9872768321E+02  3.3000000000E-01 0. 9.
-1000024    2    5    0    0    0 -1.2170381875E+02  1.8129417309E+02  2.8390857921E+02  4.4795479895E+02  2.6903535800E+02 0. 9.
       6    2    5    0  103    0 -9.1369663861E+01 -1.1212383543E+02  1.5501377885E+02  2.7376574216E+02  1.7320000000E+02 0. 9.
      -5    1    5    0    0  104 -3.2365454550E+02 -3.6134142367E+02  4.2875748382E+02  6.4743795781E+02  4.8000000000E+00 0. 9.
 1000022    1    7    0    0    0  1.8123764691E+02 -2.0017161149E+01 -3.1141622674E+01  2.2549647136E+02  1.2896157000E+02 0. 9.
     -24    2    7    0    0    0  2.3510330977E+01  3.0901996307E+01 -1.0830252486E+02  1.4037906515E+02  8.0431188000E+01 0. 9.
 1000022    1   10    0    0    0 -8.9891111368E+01  2.2328521223E+01  8.9146893645E+01  1.8209126818E+02  1.2896157000E+02 0. 9.
     -24    2   10    0    0    0 -3.1812707378E+01  1.5896565187E+02  1.9476168557E+02  2.6586353077E+02  8.0431188000E+01 0. 9.
      24    2   11    0    0    0  1.4408996683E+01 -3.8755032685E+01  9.6574768455E+01  1.3230810122E+02  8.0431188000E+01 0. 9.
       5    1   11    0  103    0 -1.0577866054E+02 -7.3368802747E+01  5.8439010390E+01  1.4145764093E+02  4.8000000000E+00 0. 9.
       3    1   14    0  105    0  1.2037562190E+01 -3.6524091908E+00 -1.0274996838E+02  1.0351835102E+02  5.0000000000E-01 0. 9.
      -4    1   14    0    0  105  1.1472768787E+01  3.4554405498E+01 -5.5525564878E+00  3.6860714135E+01  1.5000000000E+00 0. 9.
       3    1   16    0  106    0  6.1003999328E+00  9.7431949926E+01  6.4875387924E+01  1.1721461387E+02  5.0000000000E-01 0. 9.
      -4    1   16    0    0  106 -3.7913107310E+01  6.1533701944E+01  1.2988629764E+02  1.4864891690E+02  1.5000000000E+00 0. 9.
      -1    1   17    0    0  107 -1.3529752803E+00 -1.4233096682E+01 -1.2752294829E+01  1.9160936999E+01  3.3000000000E-01 0. 9.
       2    1   17    0  107    0  1.5761971963E+01 -2.4521936002E+01  1.0932706328E+02  1.1314716422E+02  3.3000000000E-01 0. 9.
</event>
<event>
    16   271  1.000000E+00  1.272618E+03  7.999395E-03  9.026836E-02
       2   -1    0    0  101    0  0.0000000000E+00  0.0000000000E+00  1.9028361288E+03  1.9028361288E+03  0.0000000000E+00 0. 9.
       2   -1    0    0  102    0  0.0000000000E+00  0.0000000000E+00 -1.3085026591E+03  1.3085026591E+03  0.0000000000E+00 0. 9.
 1000002    2    1    2  102    0  7.9630933421E+02 -4.8624308390E+01  1.2464694770E+03  1.7813601042E+03  9.9150632100E+02 0. 9.
 1000002    2    1    2  101    0 -7.9630933421E+02  4.8624308390E+01 -6.5213600733E+02  1.4299786837E+03  9.9150632100E+02 0. 9.
 1000024    2    3    0    0    0  7.1364305048E+01 -2.2221637155E+02  8.8280420908E+02  9.5194342019E+02  2.6903535800E+02 0. 9.
       1    1    3    0  102    0  7.2494502917E+02  1.7359206316E+02  3.6366526791E+02  8.2941668399E+02  3.3000000000E-01 0. 9.
 1000024    2    4    0    0    0 -5.8403394619E+00  3.3668262605E+02 -2.3538630606E+02  4.9109676967E+02  2.6903535800E+02 0. 9.
       1    1    4    0  101    0 -7.9046899475E+02 -2.8805831766E+02 -4.1674970127E+02  9.3888191400E+02  3.3000000000E-01 0. 9.
 1000022    1    5    0    0    0  6.0226208889E+01 -1.9924164608E+02  4.6318890045E+02  5.2392697374E+02  1.2896157000E+02 0. 9.
      24    2    5    0    0    0  1.1138096159E+01 -2.2974725466E+01  4.1961530862E+02  4.2801644645E+02  8.0431188000E+01 0. 9.
 1000022    1    7    0    0    0 -1.6709408179E+01  1.5519032469E+02 -2.9016575938E+01  2.0453921242E+02  1.2896157000E+02 0. 9.
      24    2    7    0    0    0  1.0869068717E+01  1.8149230135E+02 -2.0636973012E+02  2.8655755725E+02  8.0431188000E+01 0. 9.
      -3    1   10    0    0  103 -8.6413335998E+00 -4.7198133340E+01  1.7699472268E+02  1.8338407317E+02  5.0000000000E-01 0. 9.
       4    1   10    0  103    0  1.9779429759E+01  2.4223407874E+01  2.4262058595E+02  2.4463237328E+02  1.5000000000E+00 0. 9.
      -1    1   12    0    0  104 -2.7965977576E+01  3.4913542632E+01 -6.7262347236E+01  8.0779846599E+01  3.3000000000E-01 0. 9.
       2    1   12    0  104    0  3.8835046293E+01  1.4657875872E+02 -1.3910738289E+02  2.0577771065E+02  3.3000000000E-01 0. 9.
</event>
<event>
     9   259  1.000000E+00  9.426929E+02  7.971844E-03  9.335403E-02
      21   -1    0    0  101  102  0.0000000000E+00  0.0000000000E+00  1.0508031262E+03  1.0508031262E+03  0.0000000000E+00 0. 9.
       2   -1    0    0  102    0  0.0000000000E+00  0.0000000000E+00 -8.4811113023E+02  8.4811113023E+02  0.0000000000E+00 0. 9.
 1000021    2    1    2  101  103  2.7768871791E+01 -1.4972951369E+02  1.4343926416E+01  8.7845407007E+02  8.6503512500E+02 0. 9.
 2000002    2    1    2  103    0 -2.7768871791E+01  1.4972951369E+02  1.8834806958E+02  1.0204601864E+03  9.9129912700E+02 0. 9.
 1000022    1    3    0    0    0 -8.5739752145E+01 -2.5367683546E+02 -5.6625929299E+01  3.0255714229E+02  1.2896157000E+02 0. 9.
       4    1    3    0  101    0  2.3651675758E+02  2.5515866147E+02  1.3125739168E+02  3.7185598289E+02  1.5000000000E+00 0. 9.
      -4    1    3    0    0  103 -1.2300813365E+02 -1.5121133970E+02 -6.0287535961E+01  2.0404094488E+02  1.5000000000E+00 0. 9.
 1000022    1    4    0    0    0 -6.0148675009E+01 -4.0646497536E+02 -5.1321391874E+00  4.3068441427E+02  1.2896157000E+02 0. 9.
       2    1    4    0  103    0  3.2379803218E+01  5.5619448905E+02  1.9348020877E+02  5.8977577213E+02  3.3000000000E-01 0. 9.
</event>
<event>
    12   230  1.000000E+00  3.980197E+02  7.893731E-03  1.035216E-01
       1   -1    0    0  101    0  0.0000000000E+00  0.0000000000E+00  7.6761244682E+02  7.6761244682E+02  0.0000000000E+00 0. 9.
      -2   -1    0    0    0  101  0.0000000000E+00  0.0000000000E+00 -3.2821988179E+02  3.2821988179E+02  0.0000000000E+00 0. 9.
 1000023    2    1    2    0    0  4.9808058738E+01  2.8913177210E+02  5.5351065400E+02  6.8172970071E+02  2.6889276000E+02 0. 9.
-1000024    2    1    2    0    0 -4.9808058738E+01 -2.8913177210E+02 -1.1411808898E+02  4.1410262790E+02  2.6903535800E+02 0. 9.
 1000022    1    3    0    0    0  3.6367739108E+01  1.7516527038E+02  2.5081262048E+02  3.3398134907E+02  1.2896157000E+02 0. 9.
      25    2    3    0    0    0  1.3440319630E+01  1.1396650171E+02  3.0269803352E+02  3.4774835164E+02  1.2701893900E+02 0. 9.
 1000022    1    4    0    0    0  4.1229219773E+01 -2.0530566934E+02 -4.0761624434E+01  2.4928470268E+02  1.2896157000E+02 0. 9.
     -24    2    4    0    0    0 -9.1037278511E+01 -8.3826102757E+01 -7.3356464545E+01  1.6481792523E+02  8.0431188000E+01 0. 9.
       5    1    6    0  102    0  7.1150715164E+00  1.3511940296E+02  2.9374400795E+02  3.2344467766E+02  4.8000000000E+00 0. 9.
      -5    1    6    0    0  102  6.3252481137E+00 -2.1152901248E+01  8.9540255705E+00  2.4303673978E+01  4.8000000000E+00 0. 9.
       1    1    8    0  103    0 -2.2058571295E+01  1.4450756374E+01 -5.6359808705E+00  2.6968094254E+01  3.3000000000E-01 0. 9.
      -2    1    8    0    0  103 -6.8978707216E+01 -9.8276859130E+01 -6.7720483674E+01  1.3784983097E+02  3.3000000000E-01 0. 9.
</event>
<event>
    12   226  1.000000E+00  2.863752E+02  7.864310E-03  1.080131E-01
       2   -1    0    0  101    0  0.0000000000E+00  0.0000000000E+00  1.0699459552E+03  1.0699459552E+03  0.0000000000E+00 0. 9.
      -2   -1    0    0    0  101  0.0000000000E+00  0.0000000000E+00 -8.2538622991E+01  8.2538622991E+01  0.0000000000E+00 0. 9.
 1000024    2    1    2    0    0  9.4435672198E+01  2.6695564368E+01  6.4762666944E+02  7.0811798181E+02  2.6903535800E+02 0. 9.
-1000024    2    1    2    0    0 -9.4435672198E+01 -2.6695564368E+01  3.3978066281E+02  4.4436659642E+02  2.6903535800E+02 0. 9.
 1000022    1    3    0    0    0  3.6788362709E+01 -6.0343029216E+00  1.5711281235E+02  2.0665265250E+02  1.2896157000E+02 0. 9.
      24    2    3    0    0    0  5.7647309489E+01  3.2729867289E+01  4.9051385709E+02  5.0146532932E+02  8.0431188000E+01 0. 9.
 1000022    1    4    0    0    0 -8.7515669092E+01 -9.2154534379E+01  1.9441809265E+02  2.6567072069E+02  1.2896157000E+02 0. 9.
     -24    2    4    0    0    0 -6.9200031066E+00  6.5458970012E+01  1.4536257016E+02  1.7869587573E+02  8.0431188000E+01 0. 9.
     -15    1    6    0    0    0  5.1269702090E+01  4.2804980373E+01  2.0316496412E+02  2.1386914006E+02  1.7770000000E+00 0. 9.
      16    1    6    0    0    0  6.3776073991E+00 -1.0075113084E+01  2.8734889297E+02  2.8759618925E+02  0.0000000000E+00 0. 9.
       3    1    8    0  102    0  1.0906615575E+01  7.0506378053E+01  1.4326456172E+02  1.6004714385E+02  5.0000000000E-01 0. 9.
      -2    1    8    0    0  102 -1.7826618682E+01 -5.0474080409E+00  2.0980084411E+00  1.8648731887E+01  3.3000000000E-01 0. 9.
</event>
<event>
    15   272  1.000000E+00  1.105883E+03  7.986479E-03  9.168655E-02
       2   -1    0    0  101    0  0.0000000000E+00  0.0000000000E+00  1.2597069674E+03  1.2597069674E+03  0.0000000000E+00 0. 9.
       1   -1    0    0  102    0  0.0000000000E+00  0.0000000000E+00 -1.3612236664E+03  1.3612236664E+03  0.0000000000E+00 0. 9.
 2000002    2    1    2  102    0 -4.8841546310E+02  3.6761553914E+01  6.5103379262E+02  1.2831290016E+03  9.9129912700E+02 0. 9.
 2000001    2    1    2  101    0  4.8841546310E+02 -3.6761553914E+01 -7.5255049163E+02  1.3378016321E+03  9.9170554500E+02 0. 9.
 1000022    1    3    0    0    0 -1.4992153694E+02  2.6323188901E+02  7.8754166199E+02  8.5359267250E+02  1.2896157000E+02 0. 9.
       2    1    3    0  102    0 -3.3849392617E+02 -2.2647033509E+02 -1.3650786937E+02  4.2953632911E+02  3.3000000000E-01 0. 9.
 1000021    2    4    0  101  103  3.4189671299E+02  5.5586349572E+01 -6.1277152579E+02  1.1152389497E+03  8.6503512500E+02 0. 9.
       1    1    4    0  103    0  1.4651875012E+02 -9.2347903486E+01 -1.3977896584E+02  2.2256268242E+02  3.3000000000E-01 0. 9.
 1000024    2    7    0    0    0 -6.4825532585E+01  2.4070070152E+01 -8.6820538571E+01  2.9103186720E+02  2.6903535800E+02 0. 9.
      -2    1    7    0    0  103  5.1634861210E+02 -2.4469357265E+00 -3.9521884705E+02  6.5024604780E+02  3.3000000000E-01 0. 9.
       1    1    7    0  101    0 -1.0962636653E+02  3.3963215146E+01 -1.3073214017E+02  1.7396103470E+02  3.3000000000E-01 0. 9.
 1000022    1    9    0    0    0 -3.4191275548E+01  8.6752569602E+00 -1.3600270231E+02  1.9071477389E+02  1.2896157000E+02 0. 9.
      24    2    9    0    0    0 -3.0634257037E+01  1.5394813192E+01  4.9182163736E+01  1.0031709331E+02  8.0431188000E+01 0. 9.
     -13    1   13    0    0    0  7.2297778990E+00  4.0653290057E+01  1.7424013754E+01  4.4817040289E+01  1.0566000000E-01 0. 9.
      14    1   13    0    0    0 -3.7864034936E+01 -2.5258476865E+01  3.1758149982E+01  5.5500053022E+01  0.0000000000E+00 0. 9.
</event>
<event>
    12   230  1.000000E+00  3.759685E+02  7.888622E-03  1.042723E-01
       1   -1    0    0  101    0  0.0000000000E+00  0.0000000000E+00  4.2881482154E+02  4.2881482154E+02  0.0000000000E+00 0. 9.
      -2   -1    0    0    0  101  0.0000000000E+00  0.0000000000E+00 -3.4855072167E+02  3.4855072167E+02  0.0000000000E+00 0. 9.
 1000023    2    1    2    0    0 -2.1444424861E+02  1.5173758384E+02 -5.0420458258E+01  3.7928375803E+02  2.6889276000E+02 0. 9.
-1000024    2    1    2    0    0  2.1444424861E+02 -1.5173758384E+02  1.3068455813E+02  3.9808178519E+02  2.6903535800E+02 0. 9.
 1000022    1    3    0    0    0 -7.6557567173E+01  3.3904927787E+01 -9.0666070689E+00  1.5402563137E+02  1.2896157000E+02 0. 9.
      25    2    3    0    0    0 -1.3788668144E+02  1.1783265605E+02 -4.1353851189E+01  2.2525812665E+02  1.2701893900E+02 0. 9.
 1000022    1    4    0    0    0  1.4334742985E+02 -9.7696668264E+00  1.0014622299E+02  2.1749548168E+02  1.2896157000E+02 0. 9.
     -24    2    4    0    0    0  7.1096818755E+01 -1.4196791701E+02  3.0538335137E+01  1.8058630351E+02  8.0431188000E+01 0. 9.
       5    1    6    0  102    0 -1.1134998519E+02  1.2930606706E+02 -6.9788385944E+01  1.8442433948E+02  4.8000000000E+00 0. 9.
      -5    1    6    0    0  102 -2.6536696241E+01 -1.1473411010E+01  2.8434534755E+01  4.0833787166E+01  4.8000000000E+00 0. 9.
      11    1    8    0    0    0  6.6794577524E+01 -4.7622204126E+01  2.5098909904E+00  8.2071246277E+01  5.1000000000E-04 0. 9.
     -12    1    8    0    0    0  4.3022412312E+00 -9.4345712885E+01  2.8028444146E+01  9.8515057228E+01  0.0000000000E+00 0. 9.
</event>
<event>
    12   226  1.000000E+00  3.115486E+02  7.871819E-03  1.068269E-01
      -1   -1    0    0    0  101  0.0000000000E+00  0.0000000000E+00  8.0419556763E+02  8.0419556763E+02  0.0000000000E+00 0. 9.
       1   -1    0    0  101    0  0.0000000000E+00  0.0000000000E+00 -1.3341341414E+02  1.3341341414E+02  0.0000000000E+00 0. 9.
 1000024    2    1    2    0    0 -1.5702353251E+02  5.1109496660E+00  1.9064550656E+02  3.6525093374E+02  2.6903535800E+02 0. 9.
-1000024    2    1    2    0    0  1.5702353251E+02 -5.1109496660E+00  4.8013664693E+02  5.7235804803E+02  2.6903535800E+02 0. 9.
 1000022    1    3    0    0    0 -5.2220168462E+00 -3.0865677047E+01  1.0870983621E+02  1.7154846110E+02  1.2896157000E+02 0. 9.
      24    2    3    0    0    0 -1.5180151566E+02  3.5976626713E+01  8.1935670358E+01  1.9370247264E+02  8.0431188000E+01 0. 9.
 1000022    1    4    0    0    0  1.2363349940E+02 -7.8093604953E+01  2.6423494657E+02  3.2838247035E+02  1.2896157000E+02 0. 9.
     -24    2    4    0    0    0  3.3390033111E+01  7.2982655287E+01  2.1590170036E+02  2.4397557768E+02  8.0431188000E+01 0. 9.
      -1    1    6    0    0  102 -5.7202523868E+01  4.5722171015E+01  6.3292659502E+01  9.6792124194E+01  3.3000000000E-01 0. 9.
       2    1    6    0  102    0 -9.4598991794E+01 -9.7455443018E+00  1.8643010856E+01  9.6910348446E+01  3.3000000000E-01 0. 9.
       3    1    8    0  103    0  4.2040234462E+01  6.0922531145E+01  8.7065010097E+01  1.1427817857E+02  5.0000000000E-01 0. 9.
      -4    1    8    0    0  103 -8.6502013518E+00  1.2060124142E+01  1.2883669026E+02  1.2969739911E+02  1.5000000000E+00 0. 9.
</event>
<event>
    22   280  1.000000E+00  1.210333E+03  7.994775E-03  9.077006E-02
      21   -1    0    0  101  102  0.0000000000E+00  0.0000000000E+00  1.2022057744E+03  1.2022057744E+03  0.0000000000E+00 0. 9.
      21   -1    0    0  102  103  0.0000000000E+00  0.0000000000E+00 -1.2996572733E+03  1.2996572733E+03  0.0000000000E+00 0. 9.
-2000001    2    1    2    0  103 -4.5099767459E+02 -5.2728237542E+02  2.6384138731E+02  1.2387565425E+03  9.9170554500E+02 0. 9.
 2000001    2    1    2  101    0  4.5099767459E+02  5.2728237542E+02 -3.6129288614E+02  1.2631065052E+03  9.9170554500E+02 0. 9.
 1000021    2    3    0  104  103 -3.0317998559E+02 -3.8144485027E+02  1.5677296061E+02  1.0051277561E+03  8.6503512500E+02 0. 9.
      -1    1    3    0    0  104 -1.4781768900E+02 -1.4583752515E+02  1.0706842670E+02  2.3362878637E+02  3.3000000000E-01 0. 9.
 1000021    2    4    0  101  105  3.1346121176E+02  4.4366115697E+02 -4.0094628819E+02  1.0973316941E+03  8.6503512500E+02 0. 9.
       1    1    4    0  105    0  1.3753646283E+02  8.3621218448E+01  3.9653402057E+01  1.6577481105E+02  3.3000000000E-01 0. 9.
-1000024    2    5    0    0    0 -5.4229726776E+02 -2.6575926397E+02  1.6049462171E+02  6.8033290414E+02  2.6903535800E+02 0. 9.
       4    1    5    0  104    0  1.3651031943E+02 -1.1422937817E+01 -8.1207292628E+01  1.5925584823E+02  1.5000000000E+00 0. 9.
      -3    1    5    0    0  103  1.0260696273E+02 -1.0426264848E+02  7.7485631521E+01  1.6553900375E+02  5.0000000000E-01 0. 9.
-1000024    2    7    0    0    0  2.1766344508E+00  2.5006247931E+02 -2.0966265028E+02  4.2293549399E+02  2.6903535800E+02 0. 9.
       2    1    7    0  101    0 -6.7196983242E+01 -1.2516526310E+02 -9.3286371138E+01  1.6995362186E+02  3.3000000000E-01 0. 9.
      -1    1    7    0    0  105  3.7848156055E+02  3.1876394076E+02 -9.7997266779E+01  5.0444257830E+02  3.3000000000E-01 0. 9.
 1000022    1    9    0    0    0 -3.9907256939E+02 -2.6147289964E+02  9.4081386277E+01  5.0309977804E+02  1.2896157000E+02 0. 9.
     -24    2    9    0    0    0 -1.4322469837E+02 -4.2863643258E+00  6.6413235435E+01  1.7723312610E+02  8.0431188000E+01 0. 9.
 1000022    1   12    0    0    0  6.2800310496E+01  1.8749389974E+02 -8.5044734207E+01  2.5092137173E+02  1.2896157000E+02 0. 9.
     -24    2   12    0    0    0 -6.0623676045E+01  6.2568579577E+01 -1.2461791607E+02  1.7201412226E+02  8.0431188000E+01 0. 9.
       1    1   16    0  106    0 -8.4958678531E+01  1.8925857569E+01  1.6389578856E+00  8.7057223856E+01  3.3000000000E-01 0. 9.
      -4    1   16    0    0  106 -5.8266019839E+01 -2.3212221895E+01  6.4774277549E+01  9.0175902242E+01  1.5000000000E+00 0. 9.
       3    1   18    0  107    0  4.0296399345E-01  5.2043040832E+01 -3.3720543351E+01  6.2015848965E+01  5.0000000000E-01 0. 9.
      -4    1   18    0    0  107 -6.1026640038E+01  1.0525538746E+01 -9.0897372719E+01  1.0999827329E+02  1.5000000000E+00 0. 9.
</event>
<event>
    26   273  1.000000E+00  1.661445E+03  8.024032E-03  8.769319E-02
       2   -1    0    0  101    0  0.0000000000E+00  0.0000000000E+00  1.6303505378E+03  1.6303505378E+03  0.0000000000E+00 0. 9.
       2   -1    0    0  102    0  0.0000000000E+00  0.0000000000E+00 -1.9145346237E+03  1.9145346237E+03  0.0000000000E+00 0. 9.
 1000002    2    1    2  102    0 -1.3209621972E+03  1.8049966014E+02 -7.4483776478E+02  1.8208210604E+03  9.9150632100E+02 0. 9.
 2000002    2    1    2  101    0  1.3209621972E+03 -1.8049966014E+02  4.6065367890E+02  1.7240641011E+03  9.9129912700E+02 0. 9.
 1000021    2    3    0  102  103 -1.0062926362E+03  2.1585403346E+02 -5.8658826818E+02  1.4668297097E+03  8.6503512500E+02 0. 9.
       2    1    3    0  103    0 -3.1466956093E+02 -3.5354373318E+01 -1.5824949660E+02  3.5399135069E+02  3.3000000000E-01 0. 9.
 1000021    2    4    0  101  104  1.1704287958E+03 -1.6034734700E+02  2.8469916338E+02  1.4916280430E+03  8.6503512500E+02 0. 9.
       2    1    4    0  104    0  1.5053340140E+02 -2.0152313143E+01  1.7595451552E+02  2.3243605807E+02  3.3000000000E-01 0. 9.
 1000024    2    5    0    0    0 -8.8932891285E+02  1.1256229446E+01 -4.8394897463E+02  1.0476732562E+03  2.6903535800E+02 0. 9.
      -6    2    5    0    0  103 -8.2605681950E+01  1.4369900977E+02 -1.9089897706E+02  3.0645352591E+02  1.7320000000E+02 0. 9.
       5    1    5    0  102    0 -3.4358041429E+01  6.0898794237E+01  8.8259683516E+01  1.1270292758E+02  4.8000000000E+00 0. 9.
 1000023    2    7    0    0    0  6.0890145447E+02 -3.7449459656E+02  3.3345005348E+01  7.6447523823E+02  2.6889276000E+02 0. 9.
       3    1    7    0  101    0  1.7254655151E+02 -7.4992537675E+01  1.7324543862E+01  1.8893539362E+02  5.0000000000E-01 0. 9.
      -3    1    7    0    0  104  3.8898078979E+02  2.8913978724E+02  2.3402961417E+02  5.3821741118E+02  5.0000000000E-01 0. 9.
 1000022    1    9    0    0    0 -2.6974364199E+02 -4.2126924469E+01 -1.4714314023E+02  3.3588465343E+02  1.2896157000E+02 0. 9.
      24    2    9    0    0    0 -6.1958527086E+02  5.3383153915E+01 -3.3680583441E+02  7.1178860281E+02  8.0431188000E+01 0. 9.
     -24    2   10    0    0    0 -1.7095602845E+01  4.7839415398E+01 -1.6010800277E+02  1.8623806768E+02  8.0431188000E+01 0. 9.
      -5    1   10    0    0  103 -6.5510079104E+01  9.5859594377E+01 -3.0790974293E+01  1.2021545822E+02  4.8000000000E+00 0. 9.
 1000022    1   12    0    0    0  3.5569422685E+02 -1.9174254880E+02  4.9082336300E+01  4.2699385278E+02  1.2896157000E+02 0. 9.
      25    2   12    0    0    0  2.5320722762E+02 -1.8275204776E+02 -1.5737330951E+01  3.3748138545E+02  1.2701893900E+02 0. 9.
     -11    1   16    0    0    0 -2.3145685374E+02 -1.8914641177E+01 -1.2796268408E+02  2.6514993364E+02  5.1000000000E-04 0. 9.
      12    1   16    0    0    0 -3.8812841712E+02  7.2297795091E+01 -2.0884315033E+02  4.4663866917E+02  0.0000000000E+00 0. 9.
       1    1   17    0  105    0 -3.0937555778E+00  6.9355237274E+01 -1.1906798285E+02  1.3782965465E+02  3.3000000000E-01 0. 9.
      -2    1   17    0    0  105 -1.4001847267E+01 -2.1515821876E+01 -4.1040019918E+01  4.8408413037E+01  3.3000000000E-01 0. 9.
       5    1   20    0  106    0  1.5858695718E+02 -5.6945610332E+01 -5.0952418240E+01  1.7610171620E+02  4.8000000000E+00 0. 9.
      -5    1   20    0    0  106  9.4620270431E+01 -1.2580643743E+02  3.5215087288E+01  1.6137966925E+02  4.8000000000E+00 0. 9.
</event>
<event>
    28   259  1.000000E+00  1.112862E+03  7.987056E-03  9.162207E-02
       1   -1    0    0  101    0  0.0000000000E+00  0.0000000000E+00  5.3486189640E+02  5.3486189640E+02  0.0000000000E+00 0. 9.
      21   -1    0    0  102  101  0.0000000000E+00  0.0000000000E+00 -2.3649459329E+03  2.3649459329E+03  0.0000000000E+00 0. 9.
 2000001    2    1    2  103    0 -5.4612299752E+02 -2.7263252517E+02 -7.3731851679E+02  1.3782950720E+03  9.9170554500E+02 0. 9.
 1000021    2    1    2  102  103  5.4612299752E+02  2.7263252517E+02 -1.0927655197E+03  1.5215127573E+03  8.6503512500E+02 0. 9.
 1000021    2    3    0  103  104 -5.1125922488E+02 -1.2473347748E+02 -6.3919720660E+02  1.1974152462E+03  8.6503512500E+02 0. 9.
       1    1    3    0  104    0 -3.4863772631E+01 -1.4789904770E+02 -9.8121310194E+01  1.8087982576E+02  3.3000000000E-01 0. 9.
 1000024    2    4    0    0    0  1.4333256122E+02  2.8691620788E+02 -7.5777927031E+02  8.6572199915E+02  2.6903535800E+02 0. 9.
      -6    2    4    0    0  103  7.6938681323E+01 -1.0343115079E+02 -7.1845133625E+01  2.2754675753E+02  1.7320000000E+02 0. 9.
       5    1    4    0  102    0  3.2585175497E+02  8.9147468081E+01 -2.6314111574E+02  4.2824400063E+02  4.8000000000E+00 0. 9.
-1000024    2    5    0    0    0 -7.8623048303E+01 -9.6981245679E-01 -3.6155091339E+02  4.5747307144E+02  2.6903535800E+02 0. 9.
       6    2    5    0  103    0 -4.9252832284E+02 -2.0900064130E+02 -1.6421743133E+02  5.8585921655E+02  1.7320000000E+02 0. 9.
      -5    1    5    0    0  104  5.9892146255E+01  8.5236976277E+01 -1.1342886188E+02  1.5408295822E+02  4.8000000000E+00 0. 9.
 1000022    1    7    0    0    0  7.4276343460E+01  8.4428068536E+01 -2.0166373759E+02  2.6447008063E+02  1.2896157000E+02 0. 9.
      24    2    7    0    0    0  6.9056217758E+01  2.0248813934E+02 -5.5611553272E+02  6.0125191852E+02  8.0431188000E+01 0. 9.
     -24    2    8    0    0    0  9.5636834819E+01 -2.9150412968E+01 -7.8640940953E+01  1.5049825364E+02  8.0431188000E+01 0. 9.
      -5    1    8    0    0  103 -1.8698153496E+01 -7.4280737819E+01  6.7958073284E+00  7.7048503894E+01  4.8000000000E+00 0. 9.
 1000022    1   10    0    0    0  2.4763529150E+01 -4.1997390235E+01 -1.3748435490E+02  1.9470502701E+02  1.2896157000E+02 0. 9.
     -24    2   10    0    0    0 -1.0338657745E+02  4.1027577778E+01 -2.2406655849E+02  2.6276804443E+02  8.0431188000E+01 0. 9.
      24    2   11    0    0    0 -3.4974596459E+02 -7.6281631331E+01 -9.5632501369E+01  3.7915152426E+02  8.0431188000E+01 0. 9.
       5    1   11    0  103    0 -1.4278235824E+02 -1.3271900997E+02 -6.8584929963E+01  2.0670769229E+02  4.8000000000E+00 0. 9.
     -15    1   14    0    0    0  4.9966319587E+01  8.5118908580E+01 -1.6316623562E+02  1.9070458795E+02  1.7770000000E+00 0. 9.
      16    1   14    0    0    0  1.9089898171E+01  1.1736923076E+02 -3.9294929711E+02  4.1054733057E+02  0.0000000000E+00 0. 9.
       1    1   15    0  105    0  7.0130146092E+00  2.3871729090E+01 -1.2354832289E+01  2.7781155565E+01  3.3000000000E-01 0. 9.
      -2    1   15    0    0  105  8.8623820210E+01 -5.3022142058E+01 -6.6286108664E+01  1.2271709807E+02  3.3000000000E-01 0. 9.
       3    1   18    0  106    0 -2.4275348079E+01 -2.3840935030E+01 -6.9828237884E+01  7.7678282122E+01  5.0000000000E-01 0. 9.
      -4    1   18    0    0  106 -7.9111229374E+01  6.4868512808E+01 -1.5423832061E+02  1.8508976231E+02  1.5000000000E+00 0. 9.
     -13    1   19    0    0    0 -2.4094935020E+02 -4.3253746588E+01 -1.0216570337E+02  2.6526461895E+02  1.0566000000E-01 0. 9.
      14    1   19    0    0    0 -1.0879661439E+02 -3.3027884743E+01  6.5332019969E+00  1.1388690531E+02  0.0000000000E+00 0. 9.
</event>
<event>
    15   237  1.000000E+00  6.691971E+02  7.940617E-03  9.714587E-02
       2   -1    0    0  101    0  0.0000000000E+00  0.0000000000E+00  7.3150100579E+02  7.3150100579E+02  0.0000000000E+00 0. 9.
      -2   -1    0    0    0  102  0.0000000000E+00  0.0000000000E+00 -5.5854114995E+02  5.5854114995E+02  0.0000000000E+00 0. 9.
 1000022    1    1    2    0    0  2.1496154660E+02  1.3841186682E+02  2.5613250900E+02  3.8418909420E+02  1.2896157000E+02 0. 9.
 1000021    2    1    2  101  102 -2.1496154660E+02 -1.3841186682E+02 -8.3172653158E+01  9.0585306155E+02  8.6503512500E+02 0. 9.
 1000024    2    4    0    0    0  4.7714452398E+01 -1.3532332597E+02  2.0889819106E+02  3.6960458547E+02  2.6903535800E+02 0. 9.
      -6    2    4    0    0  102 -5.0656308736E+01 -4.1312917676E+01 -2.5881240698E+02  3.1820578372E+02  1.7320000000E+02 0. 9.
       5    1    4    0  101    0 -2.1201969026E+02  3.8224376825E+01 -3.3258437238E+01  2.1804269236E+02  4.8000000000E+00 0. 9.
 1000022    1    5    0    0    0  8.8880816956E+01 -2.3150742800E+01  8.5494157833E+01  1.7993358240E+02  1.2896157000E+02 0. 9.
      24    2    5    0    0    0 -4.1166364558E+01 -1.1217258317E+02  1.2340403323E+02  1.8967100307E+02  8.0431188000E+01 0. 9.
     -24    2    6    0    0    0  1.3266956548E+01  3.1243573601E+01 -1.0624400586E+02  1.3751050073E+02  8.0431188000E+01 0. 9.
      -5    1    6    0    0  102 -6.3923265284E+01 -7.2556491277E+01 -1.5256840113E+02  1.8069528299E+02  4.8000000000E+00 0. 9.
      -1    1    9    0    0  103  2.0694664452E+01 -2.2851281146E+01  4.9326993768E+01  5.8169677677E+01  3.3000000000E-01 0. 9.
       2    1    9    0  103    0 -6.1861029010E+01 -8.9321302026E+01  7.4077039462E+01  1.3150132540E+02  3.3000000000E-01 0. 9.
      15    1   10    0    0    0 -3.1350758357E+01  1.6047795251E+01 -6.8808286142E+01  7.7318430874E+01  1.7770000000E+00 0. 9.
     -16    1   10    0    0    0  4.4617714905E+01  1.5195778350E+01 -3.7435719714E+01  6.0192069856E+01  0.0000000000E+00 0. 9.
</event>
<event>
    22   272  1.000000E+00  1.157465E+03  7.990667E-03  9.122131E-02
       2   -1    0    0  101    0  0.0000000000E+00  0.0000000000E+00  2.3274881549E+03  2.3274881549E+03  0.0000000000E+00 0. 9.
       1   -1    0    0  102    0  0.0000000000E+00  0.0000000000E+00 -7.8343271442E+02  7.8343271442E+02  0.0000000000E+00 0. 9.
 2000002    2    1    2  102    0  2.3638518361E+02 -5.4842534613E+02  1.5730756174E+03  1.9529181172E+03  9.9129912700E+02 0. 9.
 2000001    2    1    2  101    0 -2.3638518361E+02  5.4842534613E+02 -2.9020176892E+01  1.1580027521E+03  9.9170554500E+02 0. 9.
 1000021    2    3    0  102  103  3.0311938067E+02 -5.5426798068E+02  1.5456401733E+03  1.8805274968E+03  8.6503512500E+02 0. 9.
       2    1    3    0  103    0 -6.6734197059E+01  5.8426345538E+00  2.7435444121E+01  7.2390620454E+01  3.3000000000E-01 0. 9.
 1000021    2    4    0  101  104 -2.4051022530E+02  6.1669507554E+02 -2.8026944107E+01  1.0896005056E+03  8.6503512500E+02 0. 9.
       1    1    4    0  104    0  4.1250416884E+00 -6.8269729414E+01 -9.9323278491E-01  6.8402246561E+01  3.3000000000E-01 0. 9.
 1000024    2    5    0    0    0 -1.9888428810E+01 -5.3777216684E+02  1.3340022442E+03  1.4633989423E+03  2.6903535800E+02 0. 9.
      -2    1    5    0    0  103  1.6053311928E+02  2.3635184581E+01  2.1264574130E+01  1.6365144469E+02  3.3000000000E-01 0. 9.
       1    1    5    0  102    0  1.6247469019E+02 -4.0130998420E+01  1.9037335495E+02  2.5347710974E+02  3.3000000000E-01 0. 9.
-1000024    2    7    0    0    0 -1.7320847054E+02  3.2353287286E+02 -6.0664329485E+01  4.5905868776E+02  2.6903535800E+02 0. 9.
       2    1    7    0  101    0  1.7238952764E+02  1.0994789207E+02  1.9959110716E+02  2.8573310478E+02  3.3000000000E-01 0. 9.
      -1    1    7    0    0  104 -2.3969128239E+02  1.8321431062E+02 -1.6695372178E+02  3.4480871304E+02  3.3000000000E-01 0. 9.
 1000022    1    9    0    0    0 -2.6869987475E+01 -4.4056640198E+02  1.1643202826E+03  1.2518360747E+03  1.2896157000E+02 0. 9.
      24    2    9    0    0    0  6.9815586641E+00 -9.7205764868E+01  1.6968196155E+02  2.1156286764E+02  8.0431188000E+01 0. 9.
 1000022    1   12    0    0    0 -1.4885802684E+02  3.0402516587E+02 -7.9241328385E+01  3.7081031310E+02  1.2896157000E+02 0. 9.
     -24    2   12    0    0    0 -2.4350443703E+01  1.9507706985E+01  1.8576998900E+01  8.8248374668E+01  8.0431188000E+01 0. 9.
      -3    1   16    0    0  105 -1.1709908947E+01 -8.6688624031E+01  7.7380462447E+01  1.1679051962E+02  5.0000000000E-01 0. 9.
       4    1   16    0  105    0  1.8691467611E+01 -1.0517140837E+01  9.2301499105E+01  9.4772348023E+01  1.5000000000E+00 0. 9.
      15    1   18    0    0    0 -3.6175443172E+01  4.1887524440E+01 -2.3222250286E+00  5.5423621773E+01  1.7770000000E+00 0. 9.
     -16    1   18    0    0    0  1.1824999469E+01 -2.2379817455E+01  2.0899223929E+01  3.2824752895E+01  0.0000000000E+00 0. 9.
</event>
<event>
    19   273  1.000000E+00  1.049596E+03  7.981685E-03  9.222553E-02
       2   -1    0    0  101    0  0.0000000000E+00  0.0000000000E+00  1.8187478936E+03  1.8187478936E+03  0.0000000000E+00 0. 9.
       1   -1    0    0  102    0  0.0000000000E+00  0.0000000000E+00 -6.1767174382E+02  6.1767174382E+02  0.0000000000E+00 0. 9.
 1000002    2    1    2  102    0  1.1526962775E+02  3.2416564283E+02  7.6993888294E+02  1.3016378602E+03  9.9150632100E+02 0. 9.
 2000001    2    1    2  101    0 -1.1526962775E+02 -3.2416564283E+02  4.3113726684E+02  1.1347817772E+03  9.9170554500E+02 0. 9.
 1000024    2    3    0    0    0 -2.9557279356E+02  4.0380310458E+02  2.1699763841E+02  6.0818436554E+02  2.6903535800E+02 0. 9.
       1    1    3    0  102    0  4.1084242131E+02 -7.9637461752E+01  5.5294124453E+02  6.9345349467E+02  3.3000000000E-01 0. 9.
 1000021    2    4    0  101  103  1.5401965765E+01 -2.8165975653E+02  3.9987587735E+02  9.9385910660E+02  8.6503512500E+02 0. 9.
       1    1    4    0  103    0 -1.3067159352E+02 -4.2505886300E+01  3.1261389487E+01  1.4092267062E+02  3.3000000000E-01 0. 9.
 1000022    1    5    0    0    0 -1.4342642304E+02  1.5810302398E+02  1.7639180009E+02  3.0547153500E+02  1.2896157000E+02 0. 9.
      24    2    5    0    0    0 -1.5214637051E+02  2.4570008060E+02  4.0605838325E+01  3.0271283054E+02  8.0431188000E+01 0. 9.
 1000023    2    7    0    0    0  1.1618592530E+02 -2.7147025030E+02  3.7953397525E+02  5.5094883681E+02  2.6889276000E+02 0. 9.
       2    1    7    0  101    0 -3.6532960799E+00  2.8796134094E+01  2.1764136615E+02  2.1956875249E+02  3.3000000000E-01 0. 9.
      -2    1    7    0    0  103 -9.7130663450E+01 -3.8985640322E+01 -1.9729946405E+02  2.2334151729E+02  3.3000000000E-01 0. 9.
      -1    1   10    0    0  104 -1.1445630766E+02  1.0865657676E+02  2.3374804167E+01  1.5953992731E+02  3.3000000000E-01 0. 9.
       2    1   10    0  104    0 -3.7690062853E+01  1.3704350383E+02  1.7231034159E+01  1.4317290323E+02  3.3000000000E-01 0. 9.
 1000022    1   11    0    0    0  8.4409943205E+01 -1.2678940494E+02  1.4988517716E+02  2.4959415976E+02  1.2896157000E+02 0. 9.
      25    2   11    0    0    0  3.1775982090E+01 -1.4468084535E+02  2.2964879809E+02  3.0135467705E+02  1.2701893900E+02 0. 9.
       5    1   17    0  105    0  2.7912936976E+01 -7.2457159920E+01  2.1156769173E+01  8.0621467093E+01  4.8000000000E+00 0. 9.
      -5    1   17    0    0  105  3.8630451137E+00 -7.2223685434E+01  2.0849202892E+02  2.2073320996E+02  4.8000000000E+00 0. 9.
</event>
<event>
    19   276  1.000000E+00  1.004502E+03  7.977659E-03  9.268355E-02
      -1   -1    0    0    0  101  0.0000000000E+00  0.0000000000E+00  1.4515858136E+03  1.4515858136E+03  0.0000000000E+00 0. 9.
       1   -1    0    0  101    0  0.0000000000E+00  0.0000000000E+00 -1.0845376290E+03  1.0845376290E+03  0.0000000000E+00 0. 9.
-1000001    2    1    2    0  102 -1.0859857068E+02 -1.0562225974E+02  9.4352354257E+02  1.3790783105E+03  9.9431916400E+02 0. 9.
 2000001    2    1    2  102    0  1.0859857068E+02  1.0562225974E+02 -5.7647535799E+02  1.1570451321E+03  9.9170554500E+02 0. 9.
 1000023    2    3    0    0    0  3.0760523628E+02 -2.2023518861E+02  1.7199186711E+02  4.9498387693E+02  2.6889276000E+02 0. 9.
      -1    1    3    0    0  102 -4.1620380696E+02  1.1461292887E+02  7.7153167547E+02  8.8409443361E+02  3.3000000000E-01 0. 9.
 1000021    2    4    0  102  103  2.6239403696E+01  3.9398640479E+01 -4.0665019323E+02  9.5702189438E+02  8.6503512500E+02 0. 9.
       1    1    4    0  103    0  8.2359166980E+01  6.6223619259E+01 -1.6982516476E+02  2.0002323770E+02  3.3000000000E-01 0. 9.
 1000022    1    5    0    0    0  1.7753196001E+02 -1.6345884862E+02  1.0528717521E+02  2.9317719526E+02  1.2896157000E+02 0. 9.
      25    2    5    0    0    0  1.3007327627E+02 -5.6776339985E+01  6.6704691897E+01  2.0180668167E+02  1.2701893900E+02 0. 9.
-1000024    2    7    0    0    0 -8.6455092201E+01  3.3765944424E+02 -8.9622095781E+01  4.4933342538E+02  2.6903535800E+02 0. 9.
       4    1    7    0  102    0 -5.7699323728E+01 -1.2551751188E+02 -1.8671596075E+02  2.3226914936E+02  1.5000000000E+00 0. 9.
      -3    1    7    0    0  103  1.7039381963E+02 -1.7274329188E+02 -1.3031213670E+02  2.7541931964E+02  5.0000000000E-01 0. 9.
       5    1   10    0  104    0  4.2186621250E+01 -4.4900245334E+01  9.0751632604E+01  1.0979363308E+02  4.8000000000E+00 0. 9.
      -5    1   10    0    0  104  8.7886655020E+01 -1.1876094651E+01 -2.4046940707E+01  9.2013048597E+01  4.8000000000E+00 0. 9.
 1000022    1   11    0    0    0 -6.7579468637E+00  8.4862364737E+01  1.0289889650E+01  1.5486852217E+02  1.2896157000E+02 0. 9.
     -24    2   11    0    0    0 -7.9697145337E+01  2.5279707951E+02 -9.9911985431E+01  2.9446490320E+02  8.0431188000E+01 0. 9.
       1    1   17    0  105    0 -5.6105784902E+01  2.3535001404E+02 -6.8448328189E+01  2.5144138629E+02  3.3000000000E-01 0. 9.
      -2    1   17    0    0  105 -2.3591360436E+01  1.7447065472E+01 -3.1463657242E+01  4.3023516916E+01  3.3000000000E-01 0. 9.
</event>
<event>
    12   230  1.000000E+00  4.009429E+02  7.894388E-03  1.034260E-01
      -3   -1    0    0    0  101  0.0000000000E+00  0.0000000000E+00  7.7821391671E+01  7.7821391671E+01  0.0000000000E+00 0. 9.
       2   -1    0    0  101    0  0.0000000000E+00  0.0000000000E+00 -2.0802269985E+03  2.0802269985E+03  0.0000000000E+00 0. 9.
 1000023    2    1    2    0    0  1.5747911819E+02 -2.5221782559E+02 -1.0912735634E+03  1.1625810986E+03  2.6889276000E+02 0. 9.
 1000024    2    1    2    0    0 -1.5747911819E+02  2.5221782559E+02 -9.1113204337E+02  9.9546729154E+02  2.6903535800E+02 0. 9.
 1000022    1    3    0    0    0  8.1188398420E+01 -1.2279871529E+02 -4.2552909677E+02  4.6837717627E+02  1.2896157000E+02 0. 9.
      25    2    3    0    0    0  7.6290719765E+01 -1.2941911031E+02 -6.6574446665E+02  6.9420392233E+02  1.2701893900E+02 0. 9.
 1000022    1    4    0    0    0 -3.2338028885E+01  2.0443024389E+02 -5.2269039398E+02  5.7677882002E+02  1.2896157000E+02 0. 9.
      24    2    4    0    0    0 -1.2514108930E+02  4.7787581699E+01 -3.8844164939E+02  4.1868847152E+02  8.0431188000E+01 0. 9.
       5    1    6    0  102    0  9.9661824358E+01 -1.3552909709E+02 -6.1767640692E+02  6.4019356374E+02  4.8000000000E+00 0. 9.
      -5    1    6    0    0  102 -2.3371104592E+01  6.1099867794E+00 -4.8068059732E+01  5.4010358587E+01  4.8000000000E+00 0. 9.
      -1    1    8    0    0  103 -4.7844285579E+01 -1.6962221759E+01 -1.8185274844E+02  1.8880498840E+02  3.3000000000E-01 0. 9.
       2    1    8    0  103    0 -7.7296803721E+01  6.4749803458E+01 -2.0658890095E+02  2.2988348311E+02  3.3000000000E-01 0. 9.
</event>
<event>
    17   258  1.000000E+00  9.413641E+02  7.971715E-03  9.336903E-02
       1   -1    0    0  101    0  0.0000000000E+00  0.0000000000E+00  1.1595337540E+03  1.1595337540E+03  0.0000000000E+00 0. 9.
      21   -1    0    0  102  101  0.0000000000E+00  0.0000000000E+00 -1.0098733473E+03  1.0098733473E+03  0.0000000000E+00 0. 9.
 1000001    2    1    2  103    0 -1.3285576525E+02  6.1194979326E+00  6.1651523662E+02  1.1774760038E+03  9.9431916400E+02 0. 9.
 1000021    2    1    2  102  103  1.3285576525E+02 -6.1194979326E+00 -4.6685482989E+02  9.9193109755E+02  8.6503512500E+02 0. 9.
-1000024    2    3    0    0    0 -1.5698887263E+02  4.5057277992E+02  2.5574552577E+02  6.0452223610E+02  2.6903535800E+02 0. 9.
       2    1    3    0  103    0  2.4133107384E+01 -4.4445328199E+02  3.6076971085E+02  5.7295376769E+02  3.3000000000E-01 0. 9.
 1000023    2    4    0    0    0  2.1487331401E+02  1.9551479857E+02 -5.2164465223E+02  6.5483817628E+02  2.6889276000E+02 0. 9.
       2    1    4    0  102    0 -1.1572357755E-01 -2.0535856491E+02 -4.2658537612E+01  2.0974273124E+02  3.3000000000E-01 0. 9.
      -2    1    4    0    0  103 -8.1901825191E+01  3.7242684141E+00  9.7448359951E+01  1.2735019003E+02  3.3000000000E-01 0. 9.
 1000022    1    5    0    0    0 -1.5196138117E+02  1.9141640073E+02  1.2623173972E+02  3.0380592240E+02  1.2896157000E+02 0. 9.
     -24    2    5    0    0    0 -5.0274914592E+00  2.5915637919E+02  1.2951378605E+02  3.0071631370E+02  8.0431188000E+01 0. 9.
 1000022    1    7    0    0    0  5.5780319038E+01  8.1890633141E+01 -2.2092460794E+02  2.7432879673E+02  1.2896157000E+02 0. 9.
      25    2    7    0    0    0  1.5909299498E+02  1.1362416543E+02 -3.0072004429E+02  3.8050937955E+02  1.2701893900E+02 0. 9.
      13    1   11    0    0    0 -1.6021799866E+01  1.6187483903E+02  1.2043080270E+02  2.0239503696E+02  1.0566000000E-01 0. 9.
     -14    1   11    0    0    0  1.0994308407E+01  9.7281540163E+01  9.0829833450E+00  9.8321276742E+01  0.0000000000E+00 0. 9.
     -15    1   13    0    0    0  3.9672449621E+00  5.0209435884E+01 -1.3800131269E+02  1.4691578035E+02  1.7770000000E+00 0. 9.
      15    1   13    0    0    0  1.5512575001E+02  6.3414729542E+01 -1.6271873161E+02  2.3359359920E+02  1.7770000000E+00 0. 9.
</event>
<event>
    22   273  1.000000E+00  1.072842E+03  7.983694E-03  9.199875E-02
       1   -1    0    0  101    0  0.0000000000E+00  0.0000000000E+00  9.4646800283E+02  9.4646800283E+02  0.0000000000E+00 0. 9.
       1   -1    0    0  102    0  0.0000000000E+00  0.0000000000E+00 -1.3684068902E+03  1.3684068902E+03  0.0000000000E+00 0. 9.
 2000001    2    1    2  102    0  1.0028618688E+02 -3.9351871242E+02  1.7540168106E+02  1.0858913086E+03  9.9170554500E+02 0. 9.
 1000001    2    1    2  101    0 -1.0028618688E+02  3.9351871242E+02 -5.9734056842E+02  1.2289835845E+03  9.9431916400E+02 0. 9.
 1000021    2    3    0  102  103  1.0261148432E+02 -2.2866239801E+02  1.8978838704E+02  9.2039176893E+02  8.6503512500E+02 0. 9.
       1    1    3    0  103    0 -2.3252974431E+00 -1.6485631441E+02 -1.4386705980E+01  1.6549953963E+02  3.3000000000E-01 0. 9.
 1000021    2    4    0  101  104 -1.6606627959E+02  3.2320403223E+02 -4.2166848169E+02  1.0286539416E+03  8.6503512500E+02 0. 9.
       1    1    4    0  104    0  6.5780092710E+01  7.0314680192E+01 -1.7567208673E+02  2.0032964285E+02  3.3000000000E-01 0. 9.
 1000023    2    5    0    0    0  5.9287208178E+01 -9.2000658154E+01  3.9962116491E+02  4.9394279626E+02  2.6889276000E+02 0. 9.
       5    1    5    0  102    0  2.5728032513E+01  1.0894024867E+02 -1.2032073514E+02  1.6440811641E+02  4.8000000000E+00 0. 9.
      -5    1    5    0    0  103  1.7596243627E+01 -2.4560198852E+02 -8.9512042736E+01  2.6204085626E+02  4.8000000000E+00 0. 9.
-1000024    2    7    0    0    0 -1.4644903723E+02  3.1708725030E+02 -4.0036773721E+02  5.9553840654E+02  2.6903535800E+02 0. 9.
       4    1    7    0  101    0  4.3210723592E+01 -1.8013090505E+02  9.1367886419E+01  2.0655423079E+02  1.5000000000E+00 0. 9.
      -3    1    7    0    0  104 -6.2827965943E+01  1.8624768698E+02 -1.1266863090E+02  2.2656130429E+02  5.0000000000E-01 0. 9.
 1000022    1    9    0    0    0  5.3167003553E+01 -4.5228292962E+01  1.4909900878E+02  2.0912658776E+02  1.2896157000E+02 0. 9.
      25    2    9    0    0    0  6.1202046255E+00 -4.6772365193E+01  2.5052215613E+02  2.8481620850E+02  1.2701893900E+02 0. 9.
 1000022    1   12    0    0    0 -7.5527023238E+01  2.3692499547E+02 -1.6597144511E+02  3.2560004891E+02  1.2896157000E+02 0. 9.
     -24    2   12    0    0    0 -7.0922013996E+01  8.0162254823E+01 -2.3439629209E+02  2.6993835763E+02  8.0431188000E+01 0. 9.
       5    1   16    0  105    0  5.9740312016E+01 -5.2989491083E+01  1.6823651964E+02  1.8628837212E+02  4.8000000000E+00 0. 9.
      -5    1   16    0    0  105 -5.3620107390E+01  6.2171258903E+00  8.2285636486E+01  9.8527836385E+01  4.8000000000E+00 0. 9.
       3    1   18    0  106    0 -8.7674856014E+01  7.6185268594E+01 -1.9600841116E+02  2.2783902820E+02  5.0000000000E-01 0. 9.
      -4    1   18    0    0  106  1.6752842018E+01  3.9769862283E+00 -3.8387880936E+01  4.2099329423E+01  1.5000000000E+00 0. 9.
</event>
<event>
    12   273  1.000000E+00  1.302428E+03  8.001528E-03  9.003874E-02
       2   -1    0    0  101    0  0.0000000000E+00  0.0000000000E+00  1.2313273119E+03  1.2313273119E+03  0.0000000000E+00 0. 9.
       2   -1    0    0  102    0  0.0000000000E+00  0.0000000000E+00 -1.3875649597E+03  1.3875649597E+03  0.0000000000E+00 0. 9.
 1000002    2    1    2  101    0  2.8264248349E+02  7.9595998696E+02 -1.8890198507E+02  1.3161336630E+03  9.9150632100E+02 0. 9.
 2000002    2    1    2  102    0 -2.8264248349E+02 -7.9595998696E+02  3.2664337238E+01  1.3027586087E+03  9.9129912700E+02 0. 9.
 1000024    2    3    0    0    0  3.7311513424E+02  9.1880375695E+02  5.4396104173E+01  1.0289578258E+03  2.6903535800E+02 0. 9.
       1    1    3    0  101    0 -9.0472650754E+01 -1.2284376999E+02 -2.4329808925E+02  2.8717583723E+02  3.3000000000E-01 0. 9.
 1000022    1    4    0    0    0 -1.2328156999E+02 -1.0122868197E+03 -2.3965794145E+01  1.0281674945E+03  1.2896157000E+02 0. 9.
       2    1    4    0  102    0 -1.5936091350E+02  2.1632683274E+02  5.6630131383E+01  2.7459111420E+02  3.3000000000E-01 0. 9.
 1000022    1    5    0    0    0  1.8377929248E+02  3.4922977955E+02 -3.5721898825E+01  4.1670542096E+02  1.2896157000E+02 0. 9.
      24    2    5    0    0    0  1.8933584176E+02  5.6957397740E+02  9.0118002998E+01  6.1225240479E+02  8.0431188000E+01 0. 9.
     -15    1   10    0    0    0  5.1125833054E+01  2.7499889256E+02  2.9505947014E+01  2.8126855557E+02  1.7770000000E+00 0. 9.
      16    1   10    0    0    0  1.3821000871E+02  2.9457508485E+02  6.0612055984E+01  3.3098384923E+02  0.0000000000E+00 0. 9.
</event>
<event>
    12   230  1.000000E+00  2.824569E+02  7.863084E-03  1.082096E-01
      -2   -1    0    0    0  101  0.0000000000E+00  0.0000000000E+00  1.5421561217E+02  1.5421561217E+02  0.0000000000E+00 0. 9.
       1   -1    0    0  101    0  0.0000000000E+00  0.0000000000E+00 -5.6212612728E+02  5.6212612728E+02  0.0000000000E+00 0. 9.
-1000024    2    1    2    0    0 -8.3627151389E+01 -2.1136518752E+01 -3.0509887099E+02  4.1581918884E+02  2.6903535800E+02 0. 9.
 1000023    2    1    2    0    0  8.3627151389E+01  2.1136518752E+01 -1.0281164412E+02  3.0052255061E+02  2.6889276000E+02 0. 9.
 1000022    1    3    0    0    0 -1.0940750598E+02 -6.2579201108E+01 -2.4489888805E+02  3.0412614271E+02  1.2896157000E+02 0. 9.
     -24    2    3    0    0    0  2.5780354594E+01  4.1442682357E+01 -6.0199982936E+01  1.1169304612E+02  8.0431188000E+01 0. 9.
 1000022    1    4    0    0    0 -2.3779330694E+01 -2.3940249433E+01 -3.5188778941E+01  1.3786924534E+02  1.2896157000E+02 0. 9.
      23    2    4    0    0    0  1.0740648208E+02  4.5076768185E+01 -6.7622865183E+01  1.6265330526E+02  9.1187600000E+01 0. 9.
       3    1    6    0  102    0  1.4950822982E+01  6.4294371433E+01 -3.0677568246E+01  7.2791871107E+01  5.0000000000E-01 0. 9.
      -4    1    6    0    0  102  1.0829531612E+01 -2.2851689076E+01 -2.9522414690E+01  3.8901175017E+01  1.5000000000E+00 0. 9.
      11    1    8    0    0    0  4.0884416081E+00  1.6556391254E+01  1.8497162158E+01  2.5158983571E+01  5.1000000000E-04 0. 9.
     -11    1    8    0    0    0  1.0331804047E+02  2.8520376931E+01 -8.6120027342E+01  1.3749432169E+02  5.1000000000E-04 0. 9.
</event>
<event>
    12   230  1.000000E+00  3.065034E+02  7.870363E-03  1.070547E-01
       2   -1    0    0  101    0  0.0000000000E+00  0.0000000000E+00  4.5276999797E+02  4.5276999797E+02  0.0000000000E+00 0. 9.
      -1   -1    0    0    0  101  0.0000000000E+00  0.0000000000E+00 -5.3307333739E+02  5.3307333739E+02  0.0000000000E+00 0. 9.
 1000024    2    1    2    0    0 -7.5496180317E+01  1.2610706114E+02  3.4507226600E+02  4.6158158188E+02  2.6903535800E+02 0. 9.
 1000023    2    1    2    0    0  7.5496180317E+01 -1.2610706114E+02 -4.2537560542E+02  5.2426175349E+02  2.6889276000E+02 0. 9.
 1000022    1    3    0    0    0  1.0557823049E+00  4.2385623266E+01  2.7314116455E+02  3.0501612751E+02  1.2896157000E+02 0. 9.
      24    2    3    0    0    0 -7.6551962622E+01  8.3721437872E+01  7.1931101450E+01  1.5656545436E+02  8.0431188000E+01 0. 9.
 1000022    1    4    0    0    0  3.0894731796E+01 -5.5989918320E+01 -2.7609901411E+02  3.1136972804E+02  1.2896157000E+02 0. 9.
      25    2    4    0    0    0  4.4601448521E+01 -7.0117142818E+01 -1.4927659130E+02  2.1289202546E+02  1.2701893900E+02 0. 9.
      -3    1    6    0    0  102 -3.7628117072E+01  5.4260561435E+01 -4.1438350961E+00  6.6162716774E+01  5.0000000000E-01 0. 9.
       4    1    6    0  102    0 -3.8923845549E+01  2.9460876437E+01  7.6074936546E+01  9.0402737587E+01  1.5000000000E+00 0. 9.
       5    1    8    0  103    0  4.0449712874E+01 -9.4252507520E+01 -1.5626158994E+02  1.8697710805E+02  4.8000000000E+00 0. 9.
      -5    1    8    0    0  103  4.1517356468E+00  2.4135364703E+01  6.9849986336E+00  2.5914917405E+01  4.8000000000E+00 0. 9.
</event>
<event>
    19   241  1.000000E+00  7.306930E+02  7.948606E-03  9.614394E-02
      -1   -1    0    0    0  101  0.0000000000E+00  0.0000000000E+00  7.5668225944E+02  7.5668225944E+02  0.0000000000E+00 0. 9.
       2   -1    0    0  102    0  0.0000000000E+00  0.0000000000E+00 -6.2623967673E+02  6.2623967673E+02  0.0000000000E+00 0. 9.
 1000021    2    1    2  102  101 -2.0739323163E+02 -2.8384411653E+02  1.0295944094E+02  9.3939653447E+02  8.6503512500E+02 0. 9.
 1000024    2    1    2    0    0  2.0739323163E+02  2.8384411653E+02  2.7483141769E+01  4.4352540169E+02  2.6903535800E+02 0. 9.
-1000024    2    3    0    0    0 -3.8390597515E+02 -1.7209971114E+01  2.2519638183E+02  5.2035892911E+02  2.6903535800E+02 0. 9.
       6    2    3    0  102    0  7.1735102253E+01 -1.3011056687E+02 -5.9774760122E+01  2.3589393051E+02  1.7320000000E+02 0. 9.
      -5    1    3    0    0  101  1.0477764127E+02 -1.3652357855E+02 -6.2462180771E+01  1.8314367485E+02  4.8000000000E+00 0. 9.
 1000022    1    4    0    0    0  1.1472110364E+02  2.6602352654E+02  2.9515741934E+00  3.1712654670E+02  1.2896157000E+02 0. 9.
      24    2    4    0    0    0  9.2672127988E+01  1.7820589985E+01  2.4531567576E+01  1.2639885500E+02  8.0431188000E+01 0. 9.
 1000022    1    5    0    0    0 -1.2043027527E+02  3.6502214729E+01  1.3636674390E+02  2.2597087923E+02  1.2896157000E+02 0. 9.
     -24    2    5    0    0    0 -2.6347569988E+02 -5.3712185842E+01  8.8829637935E+01  2.9438804988E+02  8.0431188000E+01 0. 9.
      24    2    6    0    0    0  2.7622445331E+01 -4.0922085232E+01 -9.1397200385E+01  1.3137823559E+02  8.0431188000E+01 0. 9.
       5    1    6    0  102    0  4.4112656922E+01 -8.9188481633E+01  3.1622440263E+01  1.0451569492E+02  4.8000000000E+00 0. 9.
     -15    1    9    0    0    0  3.0575926465E+01 -7.1305437498E+00  4.6349587219E+01  5.6010480249E+01  1.7770000000E+00 0. 9.
      16    1    9    0    0    0  6.2096201523E+01  2.4951133735E+01 -2.1818019643E+01  7.0388374746E+01  0.0000000000E+00 0. 9.
       1    1   11    0  103    0 -1.4955968852E+02  1.9569551715E+00  7.3553699658E+01  1.6667989002E+02  3.3000000000E-01 0. 9.
      -2    1   11    0    0  103 -1.1391601136E+02 -5.5669141014E+01  1.5275938278E+01  1.2770815986E+02  3.3000000000E-01 0. 9.
      -1    1   12    0    0  104  3.6579225610E+01 -2.4135491580E+01 -6.4161483603E+00  4.4292635504E+01  3.3000000000E-01 0. 9.
       2    1   12    0  104    0 -8.9567802792E+00 -1.6786593652E+01 -8.4981052025E+01  8.7085600088E+01  3.3000000000E-01 0. 9.
</event>
<event>
    12   226  1.000000E+00  4.729686E+02  7.909238E-03  1.013137E-01
      -1   -1    0    0    0  101  0.0000000000E+00  0.0000000000E+00  4.1656773894E+02  4.1656773894E+02  0.0000000000E+00 0. 9.
       1   -1    0    0  101    0  0.0000000000E+00  0.0000000000E+00 -5.7409720015E+02  5.7409720015E+02  0.0000000000E+00 0. 9.
 1000024    2    1    2    0    0  1.4307283695E+02 -3.6173116132E+02  4.7139601321E+01  4.7531193506E+02  2.6903535800E+02 0. 9.
-1000024    2    1    2    0    0 -1.4307283695E+02  3.6173116132E+02 -2.0466906253E+02  5.1535300402E+02  2.6903535800E+02 0. 9.
 1000022    1    3    0    0    0  1.5582276185E+02 -2.9898607103E+02 -2.8719158332E+00  3.6098855691E+02  1.2896157000E+02 0. 9.
      24    2    3    0    0    0 -1.2749924906E+01 -6.2745090294E+01  5.0011517154E+01  1.1432337815E+02  8.0431188000E+01 0. 9.
 1000022    1    4    0    0    0  1.6818674127E+00  1.0013518129E+02 -6.6139056370E+01  1.7616851173E+02  1.2896157000E+02 0. 9.
     -24    2    4    0    0    0 -1.4475470436E+02  2.6159598003E+02 -1.3853000616E+02  3.3918449229E+02  8.0431188000E+01 0. 9.
      -3    1    6    0    0  102  2.6087016882E+01 -5.1176503310E+01  4.5966021962E+01  7.3571000509E+01  5.0000000000E-01 0. 9.
       4    1    6    0  102    0 -3.8836941788E+01 -1.1568586984E+01  4.0454951923E+00  4.0752377644E+01  1.5000000000E+00 0. 9.
       1    1    8    0  103    0 -1.5052111452E+02  2.5330746537E+02 -1.4370913143E+02  3.2783181860E+02  3.3000000000E-01 0. 9.
      -2    1    8    0    0  103  5.7664101614E+00  8.2885146626E+00  5.1791252721E+00  1.1352673696E+01  3.3000000000E-01 0. 9.
</event>
<event>
    15   271  1.000000E+00  1.021188E+03  7.979169E-03  9.251119E-02
       1   -1    0    0  101    0  0.0000000000E+00  0.0000000000E+00  1.0900938364E+03  1.0900938364E+03  0.0000000000E+00 0. 9.
       2   -1    0    0  102    0  0.0000000000E+00  0.0000000000E+00 -1.2376823260E+03  1.2376823260E+03  0.0000000000E+00 0. 9.
 1000001    2    1    2  102    0  1.5624862521E+01  2.3812604395E+02  4.8074819005E+02  1.1299281266E+03  9.9431916400E+02 0. 9.
 1000002    2    1    2  101    0 -1.5624862521E+01 -2.3812604395E+02 -6.2833667965E+02  1.1978480357E+03  9.9150632100E+02 0. 9.
 1000021    2    3    0  102  103  1.0969007165E+02  1.3950354707E+02  4.4594491924E+02  9.8926527784E+02  8.6503512500E+02 0. 9.
       1    1    3    0  103    0 -9.4065209133E+01  9.8622496882E+01  3.4803270814E+01  1.4066284875E+02  3.3000000000E-01 0. 9.
 1000023    2    4    0    0    0 -2.9096722650E+01 -5.9180677249E+02 -5.0279049988E+02  8.2230376284E+02  2.6889276000E+02 0. 9.
       2    1    4    0  101    0  1.3471860129E+01  3.5368072853E+02 -1.2554617977E+02  3.7554427289E+02  3.3000000000E-01 0. 9.
 1000022    1    5    0    0    0 -3.7180315662E+01 -8.4577025775E+01  2.7405907929E+02  3.1666246169E+02  1.2896157000E+02 0. 9.
       2    1    5    0  102    0  3.6665872520E+02  2.1779137172E+02  1.4806973112E+02  4.5143820899E+02  3.3000000000E-01 0. 9.
      -2    1    5    0    0  103 -2.1978833789E+02  6.2892011312E+00  2.3816108823E+01  2.2116460716E+02  3.3000000000E-01 0. 9.
 1000022    1    7    0    0    0  4.4372568920E+01 -3.7090985742E+02 -3.5889478330E+02  5.3383480518E+02  1.2896157000E+02 0. 9.
      23    2    7    0    0    0 -7.3469291570E+01 -2.2089691506E+02 -1.4389571658E+02  2.8846895765E+02  9.1187600000E+01 0. 9.
       3    1   13    0  104    0 -4.8466319671E+01 -9.1028278339E+01 -1.5765586138E+01  1.0432610079E+02  5.0000000000E-01 0. 9.
      -3    1   13    0    0  104 -2.5002971899E+01 -1.2986863672E+02 -1.2813013044E+02  1.8414285686E+02  5.0000000000E-01 0. 9.
</event>
<event>
    26   244  1.000000E+00  1.065336E+03  7.983050E-03  9.207132E-02
      21   -1    0    0  101  102  0.0000000000E+00  0.0000000000E+00  1.6394703745E+03  1.6394703745E+03  0.0000000000E+00 0. 9.
      21   -1    0    0  103  101  0.0000000000E+00  0.0000000000E+00 -7.3356173326E+02  7.3356173326E+02  0.0000000000E+00 0. 9.
 1000021    2    1    2  103  104  6.1097734279E+02 -1.1559117742E+02  7.3449254800E+02  1.2939937033E+03  8.6503512500E+02 0. 9.
 1000021    2    1    2  104  102 -6.1097734279E+02  1.1559117742E+02  1.7141609322E+02  1.0790384044E+03  8.6503512500E+02 0. 9.
 1000024    2    3    0    0    0  2.6397597956E+02 -4.3580875352E+01  4.8209230031E+01  3.8247452751E+02  2.6903535800E+02 0. 9.
      -6    2    3    0    0  104  1.6646699979E+01 -1.2942173639E+02  4.5536168065E+02  5.0436058398E+02  1.7320000000E+02 0. 9.
       5    1    3    0  103    0  3.3035466325E+02  5.7411434320E+01  2.3092163732E+02  4.0715859184E+02  4.8000000000E+00 0. 9.
 1000024    2    4    0    0    0 -6.0108398509E+02  4.6627031017E+01  2.9231338183E+02  7.2201327841E+02  2.6903535800E+02 0. 9.
      -6    2    4    0    0  102 -7.5111166876E+01 -2.7717241840E+01 -2.5832624022E+00  1.9082674375E+02  1.7320000000E+02 0. 9.
       5    1    4    0  104    0  6.5217809176E+01  9.6681388243E+01 -1.1831402621E+02  1.6619838225E+02  4.8000000000E+00 0. 9.
 1000022    1    5    0    0    0  2.3920658242E+02  2.1784222610E+01  4.0711205509E+01  2.7564983261E+02  1.2896157000E+02 0. 9.
      24    2    5    0    0    0  2.4769397144E+01 -6.5365097962E+01  7.4980245228E+00  1.0682469490E+02  8.0431188000E+01 0. 9.
     -24    2    6    0    0    0 -3.5412923599E+01 -1.5243746182E+01  2.2420440067E+02  2.4129491548E+02  8.0431188000E+01 0. 9.
      -5    1    6    0    0  104  5.2059623577E+01 -1.1417799021E+02  2.3115727998E+02  2.6306566850E+02  4.8000000000E+00 0. 9.
 1000022    1    8    0    0    0 -3.9659252342E+02  5.9996794598E+01  2.7073093461E+02  5.0081091291E+02  1.2896157000E+02 0. 9.
      24    2    8    0    0    0 -2.0449146166E+02 -1.3369763580E+01  2.1582447218E+01  2.2120236550E+02  8.0431188000E+01 0. 9.
     -24    2    9    0    0    0 -1.1557488048E+02 -9.3929244308E+00  1.6816125847E+01  1.4211874654E+02  8.0431188000E+01 0. 9.
      -5    1    9    0    0  102  4.0463713605E+01 -1.8324317410E+01 -1.9399388249E+01  4.8707997204E+01  4.8000000000E+00 0. 9.
      -3    1   12    0    0  105 -2.9391491911E+01 -1.7184680710E+01  1.8799708856E+00  3.4102160319E+01  5.0000000000E-01 0. 9.
       4    1   12    0  105    0  5.4160889055E+01 -4.8180417252E+01  5.6180536373E+00  7.2722534585E+01  1.5000000000E+00 0. 9.
      15    1   13    0    0    0 -4.5881950072E+01 -1.5045077834E+01  2.2561357615E+02  2.3072960621E+02  1.7770000000E+00 0. 9.
     -16    1   13    0    0    0  1.0469026473E+01 -1.9866834802E-01 -1.4091754851E+00  1.0565309269E+01  0.0000000000E+00 0. 9.
      -3    1   16    0    0  106 -1.3861933708E+02  2.4921443529E+01  3.1585907899E+01  1.4434098011E+02  5.0000000000E-01 0. 9.
       4    1   16    0  106    0 -6.5872124583E+01 -3.8291207109E+01 -1.0003460681E+01  7.6861385393E+01  1.5000000000E+00 0. 9.
       1    1   17    0  107    0 -6.3694746887E+01 -3.3915650897E+01  3.7243656218E+01  8.1206471326E+01  3.3000000000E-01 0. 9.
      -2    1   17    0    0  107 -5.1880133594E+01  2.4522726467E+01 -2.0427530371E+01  6.0912275217E+01  3.3000000000E-01 0. 9.
</event>
<event>
    12   230  1.000000E+00  2.800047E+02  7.862308E-03  1.083343E-01
      -1   -1    0    0    0  101  0.0000000000E+00  0.0000000000E+00  3.6058697553E+01  3.6058697553E+01  0.0000000000E+00 0. 9.
       2   -1    0    0  101    0  0.0000000000E+00  0.0000000000E+00 -2.2258771205E+03  2.2258771205E+03  0.0000000000E+00 0. 9.
 1000023    2    1    2    0    0 -1.7798146064E+01 -7.5790273725E+01 -1.2667977275E+03  1.2973591401E+03  2.6889276000E+02 0. 9.
 1000024    2    1    2    0    0  1.7798146064E+01  7.5790273725E+01 -9.2302069546E+02  9.6457667798E+02  2.6903535800E+02 0. 9.
 1000022    1    3    0    0    0  2.1865957697E+01 -4.7576363801E+01 -7.5909058784E+02  7.7174557828E+02  1.2896157000E+02 0. 9.
      25    2    3    0    0    0 -3.9664103761E+01 -2.8213909925E+01 -5.0770713969E+02  5.2561356185E+02  1.2701893900E+02 0. 9.
 1000022    1    4    0    0    0  5.2549038773E+01 -2.2621437148E+01 -3.6767442980E+02  3.9381303148E+02  1.2896157000E+02 0. 9.
      24    2    4    0    0    0 -3.4750892710E+01  9.8411710873E+01 -5.5534626566E+02  5.7076364650E+02  8.0431188000E+01 0. 9.
       5    1    6    0  102    0  2.3125104115E+01 -5.0305502787E+01 -3.4974768371E+02  3.5413542087E+02  4.8000000000E+00 0. 9.
      -5    1    6    0    0  102 -6.2789207876E+01  2.2091592863E+01 -1.5795945598E+02  1.7147814098E+02  4.8000000000E+00 0. 9.
     -11    1    8    0    0    0 -2.2364348689E+01  1.7195477922E+01 -3.2468631706E+02  3.2590957801E+02  5.1000000000E-04 0. 9.
      12    1    8    0    0    0 -1.2386544021E+01  8.1216232951E+01 -2.3065994860E+02  2.4485406849E+02  0.0000000000E+00 0. 9.
</event>
<event>
    18   244  1.000000E+00  9.191652E+02  7.969533E-03  9.362357E-02
      21   -1    0    0  101  102  0.0000000000E+00  0.0000000000E+00  5.8671981252E+02  5.8671981252E+02  0.0000000000E+00 0. 9.
      21   -1    0    0  102  103  0.0000000000E+00  0.0000000000E+00 -1.4665570648E+03  1.4665570648E+03  0.0000000000E+00 0. 9.
 1000021    2    1    2  101  104  1.5703248767E+02 -2.6817845603E+02 -3.0171370152E+02  9.6741708256E+02  8.6503512500E+02 0. 9.
 1000021    2    1    2  104  103 -1.5703248767E+02  2.6817845603E+02 -5.7812355077E+02  1.0858597948E+03  8.6503512500E+02 0. 9.
 1000023    2    3    0    0    0  9.1235104422E+01 -5.3382479347E+01 -4.7886377039E+02  5.5927395823E+02  2.6889276000E+02 0. 9.
       1    1    3    0  101    0 -5.2473102637E+01 -8.4138910930E+01  2.0687953259E+02  2.2941672288E+02  3.3000000000E-01 0. 9.
      -1    1    3    0    0  104  1.1827048588E+02 -1.3065706575E+02 -2.9729463714E+01  1.7872640145E+02  3.3000000000E-01 0. 9.
 1000024    2    4    0    0    0  1.8762938377E+02 -5.5712869331E+01 -1.5295529155E+02  3.6617489609E+02  2.6903535800E+02 0. 9.
      -2    1    4    0    0  103  1.0820379900E+01 -1.3630104294E+01  4.0179522615E+01  4.3787707200E+01  3.3000000000E-01 0. 9.
       1    1    4    0  104    0 -3.5548225133E+02  3.3752142966E+02 -4.6534778184E+02  6.7589719148E+02  3.3000000000E-01 0. 9.
 1000022    1    5    0    0    0  3.8262816349E+01 -6.7249225443E+01 -2.6015776168E+02  3.0049899989E+02  1.2896157000E+02 0. 9.
      25    2    5    0    0    0  5.2972288073E+01  1.3866746095E+01 -2.1870600871E+02  2.5877495834E+02  1.2701893900E+02 0. 9.
 1000022    1    8    0    0    0  2.9793722049E+01 -7.8808226841E+01 -6.9509007559E+01  1.6899997385E+02  1.2896157000E+02 0. 9.
      24    2    8    0    0    0  1.5783566172E+02  2.3095357509E+01 -8.3446283990E+01  1.9717492225E+02  8.0431188000E+01 0. 9.
       5    1   12    0  105    0 -5.1691320200E+00  3.7254139442E+01 -7.8097031884E+00  3.8712043285E+01  4.8000000000E+00 0. 9.
      -5    1   12    0    0  105  5.8141420093E+01 -2.3387393346E+01 -2.1089630552E+02  2.2006291505E+02  4.8000000000E+00 0. 9.
      -1    1   14    0    0  106  8.8905805111E+01 -1.2384710349E+01 -7.8907553253E+01  1.1951625033E+02  3.3000000000E-01 0. 9.
       2    1   14    0  106    0  6.8929856606E+01  3.5480067858E+01 -4.5387307369E+00  7.7658671916E+01  3.3000000000E-01 0. 9.
</event>
<event>
    13   259  1.000000E+00  9.446628E+02  7.972035E-03  9.333183E-02
       2   -1    0    0  101    0  0.0000000000E+00  0.0000000000E+00  7.0576512673E+02  7.0576512673E+02  0.0000000000E+00 0. 9.
      21   -1    0    0  102  101  0.0000000000E+00  0.0000000000E+00 -1.2797589945E+03  1.2797589945E+03  0.0000000000E+00 0. 9.
 2000002    2    1    2  103    0  2.6126917743E+01  1.6194207964E+02 -4.3193597810E+02  1.0936866559E+03  9.9129912700E+02 0. 9.
 1000021    2    1    2  102  103 -2.6126917743E+01 -1.6194207964E+02 -1.4205788966E+02  8.9183746529E+02  8.6503512500E+02 0. 9.
 1000022    1    3    0    0    0  3.5553691795E+02 -2.4277725548E+02 -6.1203369537E+01  4.5356833530E+02  1.2896157000E+02 0. 9.
       2    1    3    0  103    0 -3.2941000021E+02  4.0471933512E+02 -3.7073260856E+02  6.4011832063E+02  3.3000000000E-01 0. 9.
 1000023    2    4    0    0    0  1.4459699915E+02  1.6988257934E+02  1.8228383309E+02  3.9408006181E+02  2.6889276000E+02 0. 9.
       2    1    4    0  102    0 -2.9218998592E+01 -7.2514334925E+01 -9.9371343440E+01  1.2643912150E+02  3.3000000000E-01 0. 9.
      -2    1    4    0    0  103 -1.4150491830E+02 -2.5931032405E+02 -2.2497037931E+02  3.7131828198E+02  3.3000000000E-01 0. 9.
 1000022    1    7    0    0    0  1.3542647612E+02  8.4925347196E+01  1.7340114380E+02  2.6879674149E+02  1.2896157000E+02 0. 9.
      23    2    7    0    0    0  9.1705230368E+00  8.4957232140E+01  8.8826892929E+00  1.2528332031E+02  9.1187600000E+01 0. 9.
       1    1   11    0  104    0  4.1269655250E+01  2.8012668011E+01  2.7966865424E+01  5.7185212032E+01  3.3000000000E-01 0. 9.
      -1    1   11    0    0  104 -3.2099132214E+01  5.6944564129E+01 -1.9084176131E+01  6.8098108280E+01  3.3000000000E-01 0. 9.
</event>
<event>
    17   258  1.000000E+00  1.027149E+03  7.979702E-03  9.245045E-02
      21   -1    0    0  101  102  0.0000000000E+00  0.0000000000E+00  6.3853107308E+02  6.3853107308E+02  0.0000000000E+00 0. 9.
       2   -1    0    0  102    0  0.0000000000E+00  0.0000000000E+00 -1.8017738918E+03  1.8017738918E+03  0.0000000000E+00 0. 9.
 1000021    2    1    2  101  103 -3.2159503380E+02 -2.9313187578E+02 -1.9502048750E+02  9.8775929274E+02  8.6503512500E+02 0. 9.
 1000002    2    1    2  103    0  3.2159503380E+02  2.9313187578E+02 -9.6822233118E+02  1.4525456721E+03  9.9150632100E+02 0. 9.
-1000024    2    3    0    0    0 -3.1492013999E+02 -1.7422904549E+02 -9.6059986792E+01  4.5949755144E+02  2.6903535800E+02 0. 9.
       4    1    3    0  101    0 -1.5001732909E+02 -9.3109035736E+01  1.5536065044E+02  2.3518859085E+02  1.5000000000E+00 0. 9.
      -3    1    3    0    0  103  1.4334243529E+02 -2.5793794553E+01 -2.5432115114E+02  2.9307315044E+02  5.0000000000E-01 0. 9.
 1000024    2    4    0    0    0  5.7297348598E+00  5.7301766062E+02 -7.3615755599E+02  9.7092226277E+02  2.6903535800E+02 0. 9.
       1    1    4    0  103    0  3.1586529894E+02 -2.7988578484E+02 -2.3206477519E+02  4.8162340933E+02  3.3000000000E-01 0. 9.
 1000022    1    5    0    0    0 -2.8092359228E+02 -8.8057559221E+01 -3.7599151133E+01  3.2360003266E+02  1.2896157000E+02 0. 9.
     -24    2    5    0    0    0 -3.3996547715E+01 -8.6171486270E+01 -5.8460835659E+01  1.3589751878E+02  8.0431188000E+01 0. 9.
 1000022    1    8    0    0    0  7.7293459962E-01  3.4252586409E+02 -3.0941897977E+02  4.7926585167E+02  1.2896157000E+02 0. 9.
      24    2    8    0    0    0  4.9568002602E+00  2.3049179653E+02 -4.2673857622E+02  4.9165641110E+02  8.0431188000E+01 0. 9.
       1    1   11    0  104    0  2.5847633163E+01 -3.6128574727E+01 -2.5375019511E+01  5.1160283103E+01  3.3000000000E-01 0. 9.
      -2    1   11    0    0  104 -5.9844180878E+01 -5.0042911543E+01 -3.3085816148E+01  8.4737235681E+01  3.3000000000E-01 0. 9.
      -1    1   13    0    0  105  2.1847994181E+01  9.9507265523E+01 -1.1823801717E+02  1.5607488057E+02  3.3000000000E-01 0. 9.
       2    1   13    0  105    0 -1.6891193921E+01  1.3098453101E+02 -3.0850055905E+02  3.3558153053E+02  3.3000000000E-01 0. 9.
</event>
<event>
    22   276  1.000000E+00  1.046588E+03  7.981421E-03  9.225534E-02
      -3   -1    0    0    0  101  0.0000000000E+00  0.0000000000E+00  4.4416754540E+02  4.4416754540E+02  0.0000000000E+00 0. 9.
       2   -1    0    0  101    0  0.0000000000E+00  0.0000000000E+00 -2.4727268148E+03  2.4727268148E+03  0.0000000000E+00 0. 9.
-2000003    2    1    2    0  102 -2.2418348577E+02 -2.4860693816E+02 -9.3866948783E+02  1.4059316983E+03  9.9170554500E+02 0. 9.
 1000002    2    1    2  102    0  2.2418348577E+02  2.4860693816E+02 -1.0898897815E+03  1.5109626618E+03  9.9150632100E+02 0. 9.
 1000021    2    3    0  103  102 -9.4872996090E+01 -2.2779029724E+02 -7.2509729660E+02  1.1553965388E+03  8.6503512500E+02 0. 9.
      -3    1    3    0    0  103 -1.2931048968E+02 -2.0816640922E+01 -2.1357219124E+02  2.5053515951E+02  5.0000000000E-01 0. 9.
 1000021    2    4    0  102  104  1.9971910484E+02  3.3760201272E+02 -9.5003027618E+02  1.3433935138E+03  8.6503512500E+02 0. 9.
       2    1    4    0  104    0  2.4464380924E+01 -8.8995074555E+01 -1.3985950537E+02  1.6756914803E+02  3.3000000000E-01 0. 9.
 1000024    2    5    0    0    0 -4.3937754835E+01 -6.3123947581E+01 -7.1376419847E+02  7.6665149444E+02  2.6903535800E+02 0. 9.
      -4    1    5    0    0  102  1.4582813885E+02 -5.1808893806E+01 -4.0679963970E+01  1.6002223916E+02  1.5000000000E+00 0. 9.
       3    1    5    0  103    0 -1.9676338011E+02 -1.1285745586E+02  2.9346865841E+01  2.2872280522E+02  5.0000000000E-01 0. 9.
-1000024    2    7    0    0    0  2.8015522454E+02  3.6367141149E+02 -9.1550866024E+02  1.0589050837E+03  2.6903535800E+02 0. 9.
       2    1    7    0  102    0 -8.7609187071E+01  9.8485041208E+00 -1.4411132401E+02  1.6893947230E+02  3.3000000000E-01 0. 9.
      -1    1    7    0    0  104  7.1730673721E+00 -3.5917902888E+01  1.0958970808E+02  1.1554895785E+02  3.3000000000E-01 0. 9.
 1000022    1    9    0    0    0  1.4043457499E+00 -5.3442643698E+01 -6.1683306737E+02  6.3243356006E+02  1.2896157000E+02 0. 9.
      24    2    9    0    0    0 -4.5342100585E+01 -9.6813038836E+00 -9.6931131100E+01  1.3421793438E+02  8.0431188000E+01 0. 9.
 1000022    1   12    0    0    0  1.8007791488E+02  1.4555765158E+02 -3.4732153915E+02  4.3689635322E+02  1.2896157000E+02 0. 9.
     -24    2   12    0    0    0  1.0007730966E+02  2.1811375991E+02 -5.6818712109E+02  6.2200873044E+02  8.0431188000E+01 0. 9.
      -1    1   16    0    0  105 -3.0903471716E+01 -3.9479071340E+01 -8.5632090703E+01  9.9229962693E+01  3.3000000000E-01 0. 9.
       2    1   16    0  105    0 -1.4438628869E+01  2.9797767456E+01 -1.1299040397E+01  3.4987971689E+01  3.3000000000E-01 0. 9.
       1    1   18    0  106    0  3.2715143222E+01  1.2976848412E+02 -3.8685342388E+02  4.0934804328E+02  3.3000000000E-01 0. 9.
      -2    1   18    0    0  106  6.7362166441E+01  8.8345275786E+01 -1.8133369721E+02  2.1266068716E+02  3.3000000000E-01 0. 9.
</event>
<event>
    12   230  1.000000E+00  3.099430E+02  7.871358E-03  1.068989E-01
       2   -1    0    0  101    0  0.0000000000E+00  0.0000000000E+00  6.2146822097E+02  6.2146822097E+02  0.0000000000E+00 0. 9.
      -1   -1    0    0    0  101  0.0000000000E+00  0.0000000000E+00 -1.6267640667E+02  1.6267640667E+02  0.0000000000E+00 0. 9.
 1000024    2    1    2    0    0 -8.1704310195E+00 -1.5380583018E+02  1.4195472056E+02  3.4096063686E+02  2.6903535800E+02 0. 9.
 1000023    2    1    2    0    0  8.1704310195E+00  1.5380583018E+02  3.1683709374E+02  4.4318399079E+02  2.6889276000E+02 0. 9.
 1000022    1    3    0    0    0 -3.1925080764E+01 -1.9315480322E+01  9.8202545169E+00  1.3460989004E+02  1.2896157000E+02 0. 9.
      24    2    3    0    0    0  2.3754649745E+01 -1.3449034986E+02  1.3213446605E+02  2.0635074681E+02  8.0431188000E+01 0. 9.
 1000022    1    4    0    0    0  3.5925982037E+01  4.8038021131E+01  1.4930499366E+02  2.0620716605E+02  1.2896157000E+02 0. 9.
      25    2    4    0    0    0 -2.7755551018E+01  1.0576780905E+02  1.6753210008E+02  2.3697682474E+02  1.2701893900E+02 0. 9.
     -15    1    6    0    0    0  2.9486189508E+01 -7.8188596135E+00  3.6044488341E+01  4.7253918421E+01  1.7770000000E+00 0. 9.
      16    1    6    0    0    0 -5.7315397632E+00 -1.2667149024E+02  9.6089977706E+01  1.5909682839E+02  0.0000000000E+00 0. 9.
       5    1    8    0  102    0  3.2580282239E+01  6.6909391145E+01  2.7373293165E+01  7.9439779663E+01  4.8000000000E+00 0. 9.
      -5    1    8    0    0  102 -6.0335833257E+01  3.8858417902E+01  1.4015880691E+02  1.5753704508E+02  4.8000000000E+00 0. 9.
</event>
<event>
    12   230  1.000000E+00  4.202369E+02  7.898607E-03  1.028162E-01
       2   -1    0    0  101    0  0.0000000000E+00  0.0000000000E+00  1.7416738557E+03  1.7416738557E+03  0.0000000000E+00 0. 9.
      -1   -1    0    0    0  101  0.0000000000E+00  0.0000000000E+00 -1.0665141271E+02  1.0665141271E+02  0.0000000000E+00 0. 9.
 1000024    2    1    2    0    0 -7.6180054160E+01  3.1377381225E+02  1.0227407055E+03  1.1057287101E+03  2.6903535800E+02 0. 9.
 1000023    2    1    2    0    0  7.6180054160E+01 -3.1377381225E+02  6.1228173752E+02  7.4259655829E+02  2.6889276000E+02 0. 9.
 1000022    1    3    0    0    0 -3.9607451453E+01  2.0172200881E+02  8.3719131362E+02  8.7165411786E+02  1.2896157000E+02 0. 9.
      24    2    3    0    0    0 -3.6572602707E+01  1.1205180344E+02  1.8554939187E+02  2.3407459227E+02  8.0431188000E+01 0. 9.
 1000022    1    4    0    0    0  5.5630552752E+01 -1.1367615635E+02  2.9674882720E+02  3.4743053968E+02  1.2896157000E+02 0. 9.
      25    2    4    0    0    0  2.0549501409E+01 -2.0009765590E+02  3.1553291032E+02  3.9516601861E+02  1.2701893900E+02 0. 9.
      -3    1    6    0    0  102 -3.6499642564E+01  1.2178470485E+02  1.4730945826E+02  1.9458690792E+02  5.0000000000E-01 0. 9.
       4    1    6    0  102    0 -7.2960143061E-02 -9.7329014099E+00  3.8239933606E+01  3.9487684349E+01  1.5000000000E+00 0. 9.
       5    1    8    0  103    0 -1.4524398933E+01 -2.0007834484E+02  2.4890259439E+02  3.1971525414E+02  4.8000000000E+00 0. 9.
      -5    1    8    0    0  103  3.5073900342E+01 -1.9311063539E-02  6.6630315924E+01  7.5450764464E+01  4.8000000000E+00 0. 9.
</event>
<event>
    12   226  1.000000E+00  3.474171E+02  7.881552E-03  1.053308E-01
      -1   -1    0    0    0  101  0.0000000000E+00  0.0000000000E+00  8.4345426435E+01  8.4345426435E+01  0.0000000000E+00 0. 9.
       1   -1    0    0  101    0  0.0000000000E+00  0.0000000000E+00 -1.6357538518E+03  1.6357538518E+03  0.0000000000E+00 0. 9.
 1000024    2    1    2    0    0  1.3883997470E+02 -1.7041728818E+02 -1.0799865146E+03  1.1344908489E+03  2.6903535800E+02 0. 9.
-1000024    2    1    2    0    0 -1.3883997470E+02  1.7041728818E+02 -4.7142191074E+02  5.8560842930E+02  2.6903535800E+02 0. 9.
 1000022    1    3    0    0    0  1.8627361487E+01 -1.5066046830E+02 -6.8579308610E+02  7.1413500039E+02  1.2896157000E+02 0. 9.
      24    2    3    0    0    0  1.2021261322E+02 -1.9756819886E+01 -3.9419342849E+02  4.2035584851E+02  8.0431188000E+01 0. 9.
 1000022    1    4    0    0    0 -8.5977513094E+01  1.8565819700E+02 -2.7415936170E+02  3.6558930648E+02  1.2896157000E+02 0. 9.
     -24    2    4    0    0    0 -5.2862461609E+01 -1.5240908811E+01 -1.9726254904E+02  2.2001912282E+02  8.0431188000E+01 0. 9.
      -3    1    6    0    0  102  2.0022180762E+01 -6.4658110188E+00 -2.0299575457E+02  2.0408385729E+02  5.0000000000E-01 0. 9.
       4    1    6    0  102    0  1.0019043245E+02 -1.3291008867E+01 -1.9119767392E+02  2.1627199122E+02  1.5000000000E+00 0. 9.
       1    1    8    0  103    0 -6.5410506191E+01 -3.4862751146E+01 -1.5245468315E+02  1.6951839149E+02  3.3000000000E-01 0. 9.
      -2    1    8    0    0  103  1.2548044582E+01  1.9621842335E+01 -4.4807865889E+01  5.0500731331E+01  3.3000000000E-01 0. 9.
</event>
<event>
    20   259  1.000000E+00  1.176293E+03  7.992150E-03  9.105777E-02
      21   -1    0    0  101  102  0.0000000000E+00  0.0000000000E+00  7.6187596120E+02  7.6187596120E+02  0.0000000000E+00 0. 9.
       2   -1    0    0  102    0  0.0000000000E+00  0.0000000000E+00 -2.0038470518E+03  2.0038470518E+03  0.0000000000E+00 0. 9.
 1000021    2    1    2  101  103 -2.7287687639E+02  6.6612645723E+02 -1.7058510732E+02  1.1382316517E+03  8.6503512500E+02 0. 9.
 2000002    2    1    2  103    0  2.7287687639E+02 -6.6612645723E+02 -1.0713859833E+03  1.6274913613E+03  9.9129912700E+02 0. 9.
 1000023    2    3    0    0    0  1.2430560632E+01  7.1372044214E+01 -1.3229235445E+02  3.0830678059E+02  2.6889276000E+02 0. 9.
       2    1    3    0  101    0  1.5592088245E+01  3.0838862299E+02  1.8333906524E+02  3.5910998002E+02  3.3000000000E-01 0. 9.
      -2    1    3    0    0  103 -3.0089952527E+02  2.8636579002E+02 -2.2163181811E+02  4.7081489112E+02  3.3000000000E-01 0. 9.
 1000021    2    4    0  103  104  2.8507533035E+02 -6.7114460782E+02 -1.1110486400E+03  1.5856916083E+03  8.6503512500E+02 0. 9.
       2    1    4    0  104    0 -1.2198453960E+01  5.0181505980E+00  3.9662656718E+01  4.1799753018E+01  3.3000000000E-01 0. 9.
 1000022    1    5    0    0    0 -3.4169632754E+01  3.0710243369E+01 -5.7894540662E+01  1.4863898286E+02  1.2896157000E+02 0. 9.
      25    2    5    0    0    0  4.6600193386E+01  4.0661800846E+01 -7.4397813789E+01  1.5966779773E+02  1.2701893900E+02 0. 9.
 1000023    2    8    0    0    0 -9.0557500019E+01 -5.7587325147E+02 -4.4820633717E+02  7.8295778917E+02  2.6889276000E+02 0. 9.
       2    1    8    0  103    0 -2.1015639794E+01  4.2266794916E+00 -1.2635506665E+02  1.2816096794E+02  3.3000000000E-01 0. 9.
      -2    1    8    0    0  104  3.9664847016E+02 -9.9498035848E+01 -5.3648723623E+02  6.7457285119E+02  3.3000000000E-01 0. 9.
     -15    1   11    0    0    0  2.9775099286E+01 -3.1270689072E+01 -7.4089337298E+01  8.5771791184E+01  1.7770000000E+00 0. 9.
      15    1   11    0    0    0  1.6825094100E+01  7.1932489917E+01 -3.0847649050E-01  7.3896006549E+01  1.7770000000E+00 0. 9.
 1000022    1   12    0    0    0 -1.3362713212E+01 -2.5616752303E+02 -1.6840346900E+02  3.3285308601E+02  1.2896157000E+02 0. 9.
      25    2   12    0    0    0 -7.7194786806E+01 -3.1970572844E+02 -2.7980286817E+02  4.5010470316E+02  1.2701893900E+02 0. 9.
       5    1   18    0  105    0 -3.3443106187E+01 -2.2467186852E+02 -2.5679823483E+02  3.4287645482E+02  4.8000000000E+00 0. 9.
      -5    1   18    0    0  105 -4.3751680619E+01 -9.5033859920E+01 -2.3004633343E+01  1.0722824835E+02  4.8000000000E+00 0. 9.
</event>
<event>
    16   271  1.000000E+00  1.240304E+03  7.997026E-03  9.052481E-02
       2   -1    0    0  101    0  0.0000000000E+00  0.0000000000E+00  1.2096668458E+03  1.2096668458E+03  0.0000000000E+00 0. 9.
       2   -1    0    0  102    0  0.0000000000E+00  0.0000000000E+00 -1.6850318485E+03  1.6850318485E+03  0.0000000000E+00 0. 9.
 1000002    2    1    2  102    0  7.3002101973E+02  1.4946050957E+02  4.7913698927E+02  1.3296338489E+03  9.9150632100E+02 0. 9.
 1000002    2    1    2  101    0 -7.3002101973E+02 -1.4946050957E+02 -9.5450199198E+02  1.5650648454E+03  9.9150632100E+02 0. 9.
 1000024    2    3    0    0    0  4.9479259769E+02  4.2814916560E+02 -2.4416474151E+01  7.0788954703E+02  2.6903535800E+02 0. 9.
       1    1    3    0  102    0  2.3522842204E+02 -2.7868865603E+02  5.0355346342E+02  6.2174430191E+02  3.3000000000E-01 0. 9.
 1000024    2    4    0    0    0 -2.9080740126E+02 -4.6484489732E+02 -7.9261293719E+02  1.0006323077E+03  2.6903535800E+02 0. 9.
       1    1    4    0  101    0 -4.3921361847E+02  3.1538438775E+02 -1.6188905479E+02  5.6443253773E+02  3.3000000000E-01 0. 9.
 1000022    1    5    0    0    0  2.3470802240E+02  1.1962152979E+02  2.0275542174E+01  2.9400569776E+02  1.2896157000E+02 0. 9.
      24    2    5    0    0    0  2.6008457528E+02  3.0852763580E+02 -4.4692016325E+01  4.1388384926E+02  8.0431188000E+01 0. 9.
 1000022    1    7    0    0    0 -1.5387859086E+02 -1.2741094235E+02 -3.1410284084E+02  3.9395919854E+02  1.2896157000E+02 0. 9.
      24    2    7    0    0    0 -1.3692881039E+02 -3.3743395496E+02 -4.7851009636E+02  6.0667310917E+02  8.0431188000E+01 0. 9.
      -3    1   10    0    0  103  1.7878209154E+02  2.0046912519E+02  8.0399726182E+00  2.6872997148E+02  5.0000000000E-01 0. 9.
       4    1   10    0  103    0  8.1302483746E+01  1.0805851061E+02 -5.2731988943E+01  1.4515387779E+02  1.5000000000E+00 0. 9.
      -1    1   12    0    0  104 -8.6742144018E-01 -6.0972765552E+00  2.7474265209E+00  6.7517741249E+00  3.3000000000E-01 0. 9.
       2    1   12    0  104    0 -1.3606138895E+02 -3.3133667841E+02 -4.8125752288E+02  5.9992133505E+02  3.3000000000E-01 0. 9.
</event>
<event>
    12   230  1.000000E+00  5.906197E+02  7.929295E-03  9.860581E-02
      -1   -1    0    0    0  101  0.0000000000E+00  0.0000000000E+00  9.7129918965E+02  9.7129918965E+02  0.0000000000E+00 0. 9.
       2   -1    0    0  101    0  0.0000000000E+00  0.0000000000E+00 -4.6572602304E+02  4.6572602304E+02  0.0000000000E+00 0. 9.
 1000023    2    1    2    0    0  5.2573126234E+02 -9.8302027787E+00  5.9650852525E+02  8.3941392063E+02  2.6889276000E+02 0. 9.
 1000024    2    1    2    0    0 -5.2573126234E+02  9.8302027787E+00 -9.0935358643E+01  5.9761129205E+02  2.6903535800E+02 0. 9.
 1000022    1    3    0    0    0  3.0466778579E+02  2.1221701517E+01  4.4393414713E+02  5.5405905267E+02  1.2896157000E+02 0. 9.
      23    2    3    0    0    0  2.2106347655E+02 -3.1051904296E+01  1.5257437811E+02  2.8535486797E+02  9.1187600000E+01 0. 9.
 1000022    1    4    0    0    0 -3.9161701248E+02  4.8790655071E+01 -5.5331802009E+00  4.1521815363E+02  1.2896157000E+02 0. 9.
      24    2    4    0    0    0 -1.3411424986E+02 -3.8960452292E+01 -8.5402178442E+01  1.8239313842E+02  8.0431188000E+01 0. 9.
       1    1    6    0  102    0  1.7856544266E+02  3.9614757268E-01  8.0257907781E+01  1.9577337640E+02  3.3000000000E-01 0. 9.
      -1    1    6    0    0  102  4.2498033885E+01 -3.1448051869E+01  7.2316470330E+01  8.9581491567E+01  3.3000000000E-01 0. 9.
      -1    1    8    0    0  103 -7.7759326906E+00 -1.0655712794E+01 -4.4803762670E+01  4.6706481282E+01  3.3000000000E-01 0. 9.
       2    1    8    0  103    0 -1.2633831717E+02 -2.8304739498E+01 -4.0598415772E+01  1.3568665714E+02  3.3000000000E-01 0. 9.
</event>
<event>
    20   259  1.000000E+00  1.066709E+03  7.983168E-03  9.205799E-02
      21   -1    0    0  101  102  0.0000000000E+00  0.0000000000E+00  8.1368305931E+02  8.1368305931E+02  0.0000000000E+00 0. 9.
       2   -1    0    0  102    0  0.0000000000E+00  0.0000000000E+00 -1.4311289513E+03  1.4311289513E+03  0.0000000000E+00 0. 9.
 1000021    2    1    2  101  103 -4.8906453115E+02  1.8222265759E+02 -1.1434523503E+02  1.0167348783E+03  8.6503512500E+02 0. 9.
 2000002    2    1    2  103    0  4.8906453115E+02 -1.8222265759E+02 -5.0310065693E+02  1.2280771323E+03  9.9129912700E+02 0. 9.
-1000024    2    3    0    0    0 -4.7839657485E+01 -9.0061984978E+01 -9.7039284889E+01  3.0363866788E+02  2.6903535800E+02 0. 9.
       4    1    3    0  101    0 -3.5796119292E+02  1.5875812680E+02 -2.3289197111E+02  4.5561088515E+02  1.5000000000E+00 0. 9.
      -3    1    3    0    0  103 -8.3263680740E+01  1.1352651577E+02  2.1558602096E+02  2.5748532530E+02  5.0000000000E-01 0. 9.
 1000021    2    4    0  103  104  5.1039392874E+02 -8.5097395491E+01 -3.9890473139E+02  1.0840453318E+03  8.6503512500E+02 0. 9.
       2    1    4    0  104    0 -2.1329397588E+01 -9.7125262099E+01 -1.0419592554E+02  1.4403180044E+02  3.3000000000E-01 0. 9.
 1000022    1    5    0    0    0  5.2228547931E+01 -7.4635271567E+01 -6.2371055882E+01  1.6976301166E+02  1.2896157000E+02 0. 9.
     -24    2    5    0    0    0 -1.0006820542E+02 -1.5426713412E+01 -3.4668229007E+01  1.3387565622E+02  8.0431188000E+01 0. 9.
 1000023    2    8    0    0    0  1.5627656294E+02  2.1728354698E+02  1.0553845356E+02  3.9379713746E+02  2.6889276000E+02 0. 9.
       5    1    8    0  103    0  2.8376742796E+02 -2.0727034446E+02 -3.5426110565E+02  4.9900793565E+02  4.8000000000E+00 0. 9.
      -5    1    8    0    0  104  7.0349937841E+01 -9.5110598008E+01 -1.5018207929E+02  1.9124025870E+02  4.8000000000E+00 0. 9.
       1    1   11    0  105    0 -3.4138853297E+01 -4.4861687903E+01 -2.2280434565E+01  6.0618140935E+01  3.3000000000E-01 0. 9.
      -2    1   11    0    0  105 -6.5929352119E+01  2.9434974491E+01 -1.2387794442E+01  7.3257515282E+01  3.3000000000E-01 0. 9.
 1000022    1   12    0    0    0  3.1599469910E+01  6.9836101330E+01 -1.1180052444E+01  1.5043831845E+02  1.2896157000E+02 0. 9.
      23    2   12    0    0    0  1.2467709303E+02  1.4744744565E+02  1.1671850600E+02  2.4335881901E+02  9.1187600000E+01 0. 9.
       3    1   18    0  106    0  3.7175981809E+01  6.6905407574E+01 -2.6045507835E-01  7.6542178065E+01  5.0000000000E-01 0. 9.
      -3    1   18    0    0  106  8.7501111217E+01  8.0542038076E+01  1.1697896108E+02  1.6681664095E+02  5.0000000000E-01 0. 9.
</event>
<event>
    12   230  1.000000E+00  4.158057E+02  7.897655E-03  1.029531E-01
       2   -1    0    0  101    0  0.0000000000E+00  0.0000000000E+00  1.4433229396E+03  1.4433229396E+03  0.0000000000E+00 0. 9.
      -1   -1    0    0    0  101  0.0000000000E+00  0.0000000000E+00 -2.0643574996E+02  2.0643574996E+02  0.0000000000E+00 0. 9.
 1000024    2    1    2    0    0 -3.0749406174E+02 -7.7460151270E+01  8.4074247573E+01  4.2426545464E+02  2.6903535800E+02 0. 9.
 1000023    2    1    2    0    0  3.0749406174E+02  7.7460151270E+01  1.1528129420E+03  1.2254932349E+03  2.6889276000E+02 0. 9.
 1000022    1    3    0    0    0 -2.6298804411E+02 -1.0713683157E+02  2.9392886482E+01  3.1326672396E+02  1.2896157000E+02 0. 9.
      24    2    3    0    0    0 -4.4506017625E+01  2.9676680304E+01  5.4681361091E+01  1.1099873068E+02  8.0431188000E+01 0. 9.
 1000022    1    4    0    0    0  1.5271050081E+02  1.1728367720E+02  6.4010756198E+02  6.8076775441E+02  1.2896157000E+02 0. 9.
      23    2    4    0    0    0  1.5478356092E+02 -3.9823525933E+01  5.1270538004E+02  5.4472548046E+02  9.1187600000E+01 0. 9.
      -3    1    6    0    0  102 -5.0602659055E+01  4.1757007123E+01  1.2649826076E+01  6.6817249622E+01  5.0000000000E-01 0. 9.
       4    1    6    0  102    0  6.0966414305E+00 -1.2080326819E+01  4.2031535014E+01  4.4181481058E+01  1.5000000000E+00 0. 9.
       4    1    8    0  103    0  9.7528747648E+01 -1.7072970997E+01  4.3187244803E+02  4.4307945599E+02  1.5000000000E+00 0. 9.
      -4    1    8    0    0  103  5.7254813276E+01 -2.2750554936E+01  8.0832932013E+01  1.0164602447E+02  1.5000000000E+00 0. 9.
</event>
<event>
    12   226  1.000000E+00  2.967108E+02  7.867468E-03  1.075108E-01
       2   -1    0    0  101    0  0.0000000000E+00  0.0000000000E+00  6.0753661543E+02  6.0753661543E+02  0.0000000000E+00 0. 9.
      -2   -1    0    0    0  101  0.0000000000E+00  0.0000000000E+00 -1.5417960555E+02  1.5417960555E+02  0.0000000000E+00 0. 9.
 1000024    2    1    2    0    0  1.2455835368E+02 -1.1936375212E+01  1.3328578793E+02  3.2527278651E+02  2.6903535800E+02 0. 9.
-1000024    2    1    2    0    0 -1.2455835368E+02  1.1936375212E+01  3.2007122194E+02  4.3644343447E+02  2.6903535800E+02 0. 9.
 1000022    1    3    0    0    0 -1.0428488143E+01  3.2010673291E+01  6.6772100088E+01  1.4907392950E+02  1.2896157000E+02 0. 9.
      24    2    3    0    0    0  1.3498684182E+02 -4.3947048503E+01  6.6513687845E+01  1.7619885701E+02  8.0431188000E+01 0. 9.
 1000022    1    4    0    0    0 -4.2971614178E-01  4.7053912493E+01  2.0069277228E+02  2.4315207323E+02  1.2896157000E+02 0. 9.
     -24    2    4    0    0    0 -1.2412863754E+02 -3.5117537281E+01  1.1937844966E+02  1.9329136124E+02  8.0431188000E+01 0. 9.
      -1    1    6    0    0  102  7.2517773959E+01 -3.3095806265E+01 -5.9212333863E+00  7.9933283663E+01  3.3000000000E-01 0. 9.
       2    1    6    0  102    0  6.2469067865E+01 -1.0851242238E+01  7.2434921232E+01  9.6265573347E+01  3.3000000000E-01 0. 9.
       1    1    8    0  103    0 -9.4883758617E+01 -6.1136862948E+01  8.8467552428E+01  1.4341290177E+02  3.3000000000E-01 0. 9.
      -2    1    8    0    0  103 -2.9244878922E+01  2.6019325667E+01  3.0910897235E+01  4.9878459471E+01  3.3000000000E-01 0. 9.
</event>
<event>
    12   230  1.000000E+00  2.895035E+02  7.865278E-03  1.078587E-01
       2   -1    0    0  101    0  0.0000000000E+00  0.0000000000E+00  3.5641683872E+02  3.5641683872E+02  0.0000000000E+00 0. 9.
      -1   -1    0    0    0  101  0.0000000000E+00  0.0000000000E+00 -2.9865684294E+02  2.9865684294E+02  0.0000000000E+00 0. 9.
 1000024    2    1    2    0    0  6.8472890028E+01 -8.2353340614E+01  1.7991963273E+02  3.4091304973E+02  2.6903535800E+02 0. 9.
 1000023    2    1    2    0    0 -6.8472890028E+01  8.2353340614E+01 -1.2215963694E+02  3.1416063194E+02  2.6889276000E+02 0. 9.
 1000022    1    3    0    0    0 -1.3908331854E+01 -1.1103207113E+02  1.0028375482E+02  1.9801383924E+02  1.2896157000E+02 0. 9.
      24    2    3    0    0    0  8.2381221882E+01  2.8678730519E+01  7.9635877914E+01  1.4289921048E+02  8.0431188000E+01 0. 9.
 1000022    1    4    0    0    0  3.1156382637E+00  5.5607008234E+01 -7.0565724462E+01  1.5720195473E+02  1.2896157000E+02 0. 9.
      25    2    4    0    0    0 -7.1588528292E+01  2.6746332380E+01 -5.1593912483E+01  1.5695867720E+02  1.2701893900E+02 0. 9.
      -1    1    6    0    0  102  1.3622114732E+01  1.3541172622E+01  6.9085533384E+01  7.1706660700E+01  3.3000000000E-01 0. 9.
       2    1    6    0  102    0  6.8759107150E+01  1.5137557897E+01  1.0550344530E+01  7.1192549785E+01  3.3000000000E-01 0. 9.
       5    1    8    0  103    0 -1.9955745062E+01 -3.3229880827E+01 -6.5695740521E+01  7.6429229117E+01  4.8000000000E+00 0. 9.
      -5    1    8    0    0  103 -5.1632783230E+01  5.9976213207E+01  1.4101828038E+01  8.0529448084E+01  4.8000000000E+00 0. 9.
</event>
<event>
    14   248  1.000000E+00  8.805325E+02  7.965608E-03  9.408508E-02
       1   -1    0    0  101    0  0.0000000000E+00  0.0000000000E+00  8.5911534542E+02  8.5911534542E+02  0.0000000000E+00 0. 9.
      21   -1    0    0  102  101  0.0000000000E+00  0.0000000000E+00 -8.1550047262E+02  8.1550047262E+02  0.0000000000E+00 0. 9.
 1000001    2    1    2  102    0 -2.6985176740E+02 -4.1476573827E+02  4.2435499789E+01  1.1114503883E+03  9.9431916400E+02 0. 9.
 1000023    2    1    2    0    0  2.6985176740E+02  4.1476573827E+02  1.1793730075E+00  5.6316542979E+02  2.6889276000E+02 0. 9.
-1000024    2    3    0    0    0  1.4492244660E+02 -3.6182577463E+02  3.5292384232E+02  5.9064005032E+02  2.6903535800E+02 0. 9.
       2    1    3    0  102    0 -4.1477421400E+02 -5.2939963635E+01 -3.1048834253E+02  5.2081033793E+02  3.3000000000E-01 0. 9.
 1000022    1    4    0    0    0  1.6991700552E+02  2.7108671288E+02  2.3591274324E+01  3.4575631509E+02  1.2896157000E+02 0. 9.
      25    2    4    0    0    0  9.9934761878E+01  1.4367902539E+02 -2.2411901317E+01  2.1740911470E+02  1.2701893900E+02 0. 9.
 1000022    1    5    0    0    0  1.7422691064E+02 -2.5128851798E+02  2.2335826942E+02  4.0002617254E+02  1.2896157000E+02 0. 9.
     -24    2    5    0    0    0 -2.9304464043E+01 -1.1053725665E+02  1.2956557290E+02  1.9061387779E+02  8.0431188000E+01 0. 9.
       5    1    8    0  103    0 -2.1789014763E+01 -3.1422357258E+00 -1.3831595620E+01  2.6438378299E+01  4.8000000000E+00 0. 9.
      -5    1    8    0    0  103  1.2172377664E+02  1.4682126111E+02 -8.5803056964E+00  1.9097073640E+02  4.8000000000E+00 0. 9.
      13    1   10    0    0    0  2.6215046440E+01 -1.9752562286E+01  3.8125551409E+01  5.0308659404E+01  1.0566000000E-01 0. 9.
     -14    1   10    0    0    0 -5.5519510483E+01 -9.0784694366E+01  9.1440021492E+01  1.4030521838E+02  0.0000000000E+00 0. 9.
</event>
<event>
    12   226  1.000000E+00  4.746099E+02  7.909550E-03  1.012703E-01
       1   -1    0    0  101    0  0.0000000000E+00  0.0000000000E+00  1.2993408976E+03  1.2993408976E+03  0.0000000000E+00 0. 9.
      -1   -1    0    0    0  101  0.0000000000E+00  0.0000000000E+00 -2.2096099824E+02  2.2096099824E+02  0.0000000000E+00 0. 9.
-1000024    2    1    2    0    0 -3.8153196448E+02 -8.5486034202E+01  1.8637474406E+02  5.0989221512E+02  2.6903535800E+02 0. 9.
 1000024    2    1    2    0    0  3.8153196448E+02  8.5486034202E+01  8.9200515525E+02  1.0104096807E+03  2.6903535800E+02 0. 9.
 1000022    1    3    0    0    0 -3.3233131875E+02 -5.7674079119E+01  8.9847461567E+01  3.7212102563E+02  1.2896157000E+02 0. 9.
     -24    2    3    0    0    0 -4.9200645725E+01 -2.7811955083E+01  9.6527282498E+01  1.3777118949E+02  8.0431188000E+01 0. 9.
 1000022    1    4    0    0    0  3.5614443113E+02  7.4946428152E+01  6.7959610903E+02  7.8162508971E+02  1.2896157000E+02 0. 9.
      24    2    4    0    0    0  2.5387533345E+01  1.0539606050E+01  2.1240904622E+02  2.2878459097E+02  8.0431188000E+01 0. 9.
       1    1    6    0  102    0  6.8204509548E+00  2.1093362040E+01  1.2082888570E+01  2.5249823160E+01  3.3000000000E-01 0. 9.
      -2    1    6    0    0  102 -5.6021096679E+01 -4.8905317124E+01  8.4444393928E+01  1.1252136634E+02  3.3000000000E-01 0. 9.
      -1    1    8    0    0  103  3.4420589889E+00 -3.4347260460E+01  7.4689792449E+01  8.2281565780E+01  3.3000000000E-01 0. 9.
       2    1    8    0  103    0  2.1945474356E+01  4.4886866510E+01  1.3771925377E+02  1.4650302519E+02  3.3000000000E-01 0. 9.
</event>
<event>
    17   258  1.000000E+00  9.682984E+02  7.974297E-03  9.306991E-02
       1   -1    0    0  101    0  0.0000000000E+00  0.0000000000E+00  1.5443866001E+03  1.5443866001E+03  0.0000000000E+00 0. 9.
      21   -1    0    0  102  101  0.0000000000E+00  0.0000000000E+00 -6.3115043332E+02  6.3115043332E+02  0.0000000000E+00 0. 9.
 1000001    2    1    2  103    0  1.6448599417E+02  2.0510461319E+02  7.0743652245E+02  1.2483030793E+03  9.9431916400E+02 0. 9.
 1000021    2    1    2  102  103 -1.6448599417E+02 -2.0510461319E+02  2.0579964437E+02  9.2723395415E+02  8.6503512500E+02 0. 9.
-1000024    2    3    0    0    0  5.2391168024E+02 -1.1410306123E+00  5.4745810388E+02  8.0409896779E+02  2.6903535800E+02 0. 9.
       2    1    3    0  103    0 -3.5942568606E+02  2.0624564380E+02  1.5997841857E+02  4.4420411153E+02  3.3000000000E-01 0. 9.
 1000023    2    4    0    0    0 -6.9788728215E+01  1.3719707030E+02  9.0867246405E+01  3.2288337761E+02  2.6889276000E+02 0. 9.
       5    1    4    0  102    0 -4.1715687048E+01  4.3566836685E+01  1.9716979804E+02  2.0624557465E+02  4.8000000000E+00 0. 9.
      -5    1    4    0    0  103 -5.2981578909E+01 -3.8586852017E+02 -8.2237400078E+01  3.9810500190E+02  4.8000000000E+00 0. 9.
 1000022    1    5    0    0    0  4.7583883839E+02 -1.9460047863E+01  4.6373818505E+02  6.7711556207E+02  1.2896157000E+02 0. 9.
     -24    2    5    0    0    0  4.8072841844E+01  1.8319017251E+01  8.3719918832E+01  1.2698340572E+02  8.0431188000E+01 0. 9.
 1000022    1    7    0    0    0 -5.8108993035E+01  4.1860202588E+01  2.1059272220E+01  1.4900842632E+02  1.2896157000E+02 0. 9.
      25    2    7    0    0    0 -1.1679735180E+01  9.5336867710E+01  6.9807974185E+01  1.7387495128E+02  1.2701893900E+02 0. 9.
      13    1   11    0    0    0  3.3802814831E+01  2.8361106748E+01  9.5994002855E+01  1.0564962099E+02  1.0566000000E-01 0. 9.
     -14    1   11    0    0    0  1.4270027014E+01 -1.0042089497E+01 -1.2274084024E+01  2.1333784733E+01  0.0000000000E+00 0. 9.
      21    1   13    0  104  105 -3.1601199056E+01  1.0979320316E+02  8.7209186351E+01  1.4373108719E+02  0.0000000000E+00 0. 9.
      21    1   13    0  105  104  1.9921463876E+01 -1.4456335446E+01 -1.7401212166E+01  3.0143864091E+01  0.0000000000E+00 0. 9.
</event>
<event>
    19   273  1.000000E+00  1.324273E+03  8.003062E-03  8.987451E-02
       2   -1    0    0  101    0  0.0000000000E+00  0.0000000000E+00  8.6952390678E+02  8.6952390678E+02  0.0000000000E+00 0. 9.
       2   -1    0    0  102    0  0.0000000000E+00  0.0000000000E+00 -2.4462423531E+03  2.4462423531E+03  0.0000000000E+00 0. 9.
 2000002    2    1    2  102    0 -6.3443760507E+02  6.0688344183E+02 -9.3725437047E+01  1.3275078167E+03  9.9129912700E+02 0. 9.
 1000002    2    1    2  101    0  6.3443760507E+02 -6.0688344183E+02 -1.4829930093E+03  1.9882584432E+03  9.9150632100E+02 0. 9.
 1000021    2    3    0  102  103 -4.9459175024E+02  3.9846382577E+02 -8.0100420906E+01  1.0761488116E+03  8.6503512500E+02 0. 9.
       2    1    3    0  103    0 -1.3984585484E+02  2.0841961607E+02 -1.3625016141E+01  2.5135900509E+02  3.3000000000E-01 0. 9.
 1000023    2    4    0    0    0  6.0798811614E+02  4.1251991894E+01 -8.7064680499E+02  1.0962118644E+03  2.6889276000E+02 0. 9.
       2    1    4    0  101    0  2.6449488930E+01 -6.4813543373E+02 -6.1234620429E+02  8.9204657879E+02  3.3000000000E-01 0. 9.
 1000023    2    5    0    0    0 -4.3730658443E+02  1.5449548196E+02 -3.6923359443E+02  6.5095519537E+02  2.6889276000E+02 0. 9.
       1    1    5    0  102    0 -1.2660370557E+01 -2.5193763099E+01  7.6236264347E-01  2.8208168649E+01  3.3000000000E-01 0. 9.
      -1    1    5    0    0  103 -4.4624795249E+01  2.6916210690E+02  2.8837081089E+02  3.9698544761E+02  3.3000000000E-01 0. 9.
 1000022    1    7    0    0    0  3.2659657293E+02 -1.5674372782E+01 -4.3561930524E+02  5.5973768235E+02  1.2896157000E+02 0. 9.
      25    2    7    0    0    0  2.8139154322E+02  5.6926364676E+01 -4.3502749975E+02  5.3647418204E+02  1.2701893900E+02 0. 9.
 1000022    1    9    0    0    0 -2.6541171659E+02  1.2231546344E+02 -2.0589976261E+02  3.8003980144E+02  1.2896157000E+02 0. 9.
      25    2    9    0    0    0 -1.7189486784E+02  3.2180018524E+01 -1.6333383182E+02  2.7091539392E+02  1.2701893900E+02 0. 9.
       5    1   13    0  104    0  1.6790467130E+02  4.1252153830E+01 -3.6013853058E+02  3.9952036250E+02  4.8000000000E+00 0. 9.
      -5    1   13    0    0  104  1.1348687192E+02  1.5674210846E+01 -7.4888969168E+01  1.3695381954E+02  4.8000000000E+00 0. 9.
       5    1   15    0  105    0 -7.8412676810E+01 -2.2751319369E+01 -1.3647927428E+02  1.5910940489E+02  4.8000000000E+00 0. 9.
      -5    1   15    0    0  105 -9.3482191031E+01  5.4931337893E+01 -2.6854557545E+01  1.1180598903E+02  4.8000000000E+00 0. 9.
</event>
<event>
    17   258  1.000000E+00  1.129965E+03  7.988457E-03  9.146612E-02
       2   -1    0    0  101    0  0.0000000000E+00  0.0000000000E+00  2.3201024558E+03  2.3201024558E+03  0.0000000000E+00 0. 9.
      21   -1    0    0  102  101  0.0000000000E+00  0.0000000000E+00 -1.1571454198E+03  1.1571454198E+03  0.0000000000E+00 0. 9.
 1000002    2    1    2  103    0  5.2215090920E+02 -3.7214651996E+02  1.8538083311E+03  2.1979137192E+03  9.9150632100E+02 0. 9.
 1000021    2    1    2  102  103 -5.2215090920E+02  3.7214651996E+02 -6.9085129512E+02  1.2793341564E+03  8.6503512500E+02 0. 9.
 1000024    2    3    0    0    0  3.8956323298E+02  2.1325094596E+02  1.2153024683E+03  1.3215807170E+03  2.6903535800E+02 0. 9.
       1    1    3    0  103    0  1.3258767622E+02 -5.8539746592E+02  6.3850586279E+02  8.7633300218E+02  3.3000000000E-01 0. 9.
 1000024    2    4    0    0    0 -1.0898164911E+01  2.0180148130E+02  1.9812310170E+01  3.3706847871E+02  2.6903535800E+02 0. 9.
      -2    1    4    0    0  103 -1.0865653592E+02 -7.8092310849E+01 -2.4091496283E+02  2.7558080490E+02  3.3000000000E-01 0. 9.
       1    1    4    0  102    0 -4.0259620837E+02  2.4843734951E+02 -4.6974864245E+02  6.6668487279E+02  3.3000000000E-01 0. 9.
 1000022    1    5    0    0    0  1.2526692695E+02  1.0074782494E+02  3.4836635756E+02  4.0476182235E+02  1.2896157000E+02 0. 9.
      24    2    5    0    0    0  2.6429630603E+02  1.1250312102E+02  8.6693611070E+02  9.1681889469E+02  8.0431188000E+01 0. 9.
 1000022    1    7    0    0    0 -2.8940614559E+01  2.1471678906E+02  2.5607312892E+01  2.5343180480E+02  1.2896157000E+02 0. 9.
      24    2    7    0    0    0  1.8042449648E+01 -1.2915307756E+01 -5.7950027215E+00  8.3636673914E+01  8.0431188000E+01 0. 9.
     -13    1   11    0    0    0  2.5363675545E+02  1.1826665089E+02  8.5567319596E+02  9.0027508789E+02  1.0566000000E-01 0. 9.
      14    1   11    0    0    0  1.0659550577E+01 -5.7635298619E+00  1.1262914742E+01  1.6543806801E+01  0.0000000000E+00 0. 9.
      -3    1   13    0    0  104 -3.1473540220E+01 -1.1705335392E+01 -5.8150910653E+00  3.4083190794E+01  5.0000000000E-01 0. 9.
       4    1   13    0  104    0  4.9515989868E+01 -1.2099723637E+00  2.0088343804E-02  4.9553483119E+01  1.5000000000E+00 0. 9.
</event>
<event>
    15   241  1.000000E+00  6.926996E+02  7.943752E-03  9.675000E-02
      -1   -1    0    0    0  101  0.0000000000E+00  0.0000000000E+00  2.6474134964E+02  2.6474134964E+02  0.0000000000E+00 0. 9.
       2   -1    0    0  102    0  0.0000000000E+00  0.0000000000E+00 -2.0891117979E+03  2.0891117979E+03  0.0000000000E+00 0. 9.
 1000021    2    1    2  102  101 -9.8995062082E+01 -2.4433542082E+02 -6.3165822183E+02  1.1030764692E+03  8.6503512500E+02 0. 9.
 1000024    2    1    2    0    0  9.8995062082E+01  2.4433542082E+02 -1.1927122265E+03  1.2507766784E+03  2.6903535800E+02 0. 9.
 1000024    2    3    0    0    0 -2.9866909324E+02 -1.6533656011E+02 -2.6055625760E+02  5.0676325103E+02  2.6903535800E+02 0. 9.
      -4    1    3    0    0  101  1.4855309078E+02  3.2133965541E+01  4.8260110753E+01  1.5947382485E+02  1.5000000000E+00 0. 9.
       3    1    3    0  102    0  5.1120940376E+01 -1.1113282626E+02 -4.1936207498E+02  4.3683939331E+02  5.0000000000E-01 0. 9.
 1000022    1    4    0    0    0  7.9078370175E+01  9.5654509393E+01 -8.4364201027E+02  8.6241875086E+02  1.2896157000E+02 0. 9.
      24    2    4    0    0    0  1.9916691907E+01  1.4868091143E+02 -3.4907021620E+02  3.8835792754E+02  8.0431188000E+01 0. 9.
 1000022    1    5    0    0    0 -5.7584466100E+01 -4.4000751570E+01 -5.3874748076E+01  1.5743446856E+02  1.2896157000E+02 0. 9.
      24    2    5    0    0    0 -2.4108462714E+02 -1.2133580854E+02 -2.0668150953E+02  3.4932878247E+02  8.0431188000E+01 0. 9.
      -3    1    9    0    0  103 -3.5479928351E+00  8.2250232439E+01 -1.0009950910E+02  1.2960652264E+02  5.0000000000E-01 0. 9.
       4    1    9    0  103    0  2.3464684742E+01  6.6430678992E+01 -2.4897070710E+02  2.5875140489E+02  1.5000000000E+00 0. 9.
     -15    1   11    0    0    0 -1.8562753963E+02 -5.3110961393E+01 -1.5259837591E+02  2.4610522089E+02  1.7770000000E+00 0. 9.
      16    1   11    0    0    0 -5.5457087508E+01 -6.8224847147E+01 -5.4083133617E+01  1.0322356158E+02  0.0000000000E+00 0. 9.
</event>
<event>
    12   226  1.000000E+00  3.074034E+02  7.870624E-03  1.070138E-01
      -2   -1    0    0    0  101  0.0000000000E+00  0.0000000000E+00  4.4071114484E+01  4.4071114484E+01  0.0000000000E+00 0. 9.
       2   -1    0    0  101    0  0.0000000000E+00  0.0000000000E+00 -2.4877691580E+03  2.4877691580E+03  0.0000000000E+00 0. 9.
-1000024    2    1    2    0    0 -1.2685469892E+02  7.7618931471E+01 -7.5139762840E+02  8.1184680389E+02  2.6903535800E+02 0. 9.
 1000024    2    1    2    0    0  1.2685469892E+02 -7.7618931471E+01 -1.6923004151E+03  1.7199934686E+03  2.6903535800E+02 0. 9.
 1000022    1    3    0    0    0 -1.5115503239E+02  9.6951215562E+01 -5.3110953286E+02  5.7528758412E+02  1.2896157000E+02 0. 9.
     -24    2    3    0    0    0  2.4300333470E+01 -1.9332284090E+01 -2.2028809554E+02  2.3655921977E+02  8.0431188000E+01 0. 9.
 1000022    1    4    0    0    0  2.5058640405E+01 -9.9395317118E+01 -7.0637485424E+02  7.2533019085E+02  1.2896157000E+02 0. 9.
      24    2    4    0    0    0  1.0179605851E+02  2.1776385647E+01 -9.8592556083E+02  9.9466327770E+02  8.0431188000E+01 0. 9.
       3    1    6    0  102    0 -2.7598186938E+01 -7.8384022511E-01 -4.4922989266E+01  5.2731388113E+01  5.0000000000E-01 0. 9.
      -4    1    6    0    0  102  5.1898520408E+01 -1.8548443865E+01 -1.7536510628E+02  1.8382783165E+02  1.5000000000E+00 0. 9.
      -3    1    8    0    0  103 -3.1486910307E+00  2.6197533747E+01 -1.8199646671E+02  1.8389994270E+02  5.0000000000E-01 0. 9.
       4    1    8    0  103    0  1.0494474954E+02 -4.4211481005E+00 -8.0392909412E+02  8.1076333500E+02  1.5000000000E+00 0. 9.
</event>
<event>
    12   230  1.000000E+00  3.406715E+02  7.879799E-03  1.055969E-01
       2   -1    0    0  101    0  0.0000000000E+00  0.0000000000E+00  1.1524976027E+03  1.1524976027E+03  0.0000000000E+00 0. 9.
      -1   -1    0    0    0  101  0.0000000000E+00  0.0000000000E+00 -1.0601059316E+02  1.0601059316E+02  0.0000000000E+00 0. 9.
 1000024    2    1    2    0    0 -8.1573624148E+01 -1.9251269252E+02  3.8249297681E+02  5.1224632170E+02  2.6903535800E+02 0. 9.
 1000023    2    1    2    0    0  8.1573624148E+01  1.9251269252E+02  6.6399403276E+02  7.4626187418E+02  2.6889276000E+02 0. 9.
 1000022    1    3    0    0    0  1.8427674074E+01 -1.6192326863E+02  2.1482118083E+02  2.9889454724E+02  1.2896157000E+02 0. 9.
      24    2    3    0    0    0 -1.0000129822E+02 -3.0589423887E+01  1.6767179597E+02  2.1335177446E+02  8.0431188000E+01 0. 9.
 1000022    1    4    0    0    0  6.8307583136E+01  1.1281600954E+02  4.3168578628E+02  4.6944337522E+02  1.2896157000E+02 0. 9.
      25    2    4    0    0    0  1.3266041012E+01  7.9696682984E+01  2.3230824648E+02  2.7681849896E+02  1.2701893900E+02 0. 9.
      -1    1    6    0    0  102 -5.2053030634E+00 -2.0231062332E+01  8.3767440461E+01  8.6333562677E+01  3.3000000000E-01 0. 9.
       2    1    6    0  102    0 -9.4795995158E+01 -1.0358361555E+01  8.3904355511E+01  1.2701821179E+02  3.3000000000E-01 0. 9.
       5    1    8    0  103    0 -4.0541592461E+01  1.8651346837E+01  1.6533351561E+02  1.7131755555E+02  4.8000000000E+00 0. 9.
      -5    1    8    0    0  103  5.3807633473E+01  6.1045336146E+01  6.6974730870E+01  1.0550094341E+02  4.8000000000E+00 0. 9.
</event>
<event>
    16   271  1.000000E+00  1.240963E+03  7.997075E-03  9.051950E-02
       2   -1    0    0  101    0  0.0000000000E+00  0.0000000000E+00  6.3481653196E+02  6.3481653196E+02  0.0000000000E+00 0. 9.
       2   -1    0    0  102    0  0.0000000000E+00  0.0000000000E+00 -2.4290660598E+03  2.4290660598E+03  0.0000000000E+00 0. 9.
 1000002    2    1    2  102    0 -2.0780021171E+02  7.1674508844E+02 -8.4165004526E+02  1.4994545785E+03  9.9150632100E+02 0. 9.
 1000002    2    1    2  101    0  2.0780021171E+02 -7.1674508844E+02 -9.5259948259E+02  1.5644280132E+03  9.9150632100E+02 0. 9.
 1000024    2    3    0    0    0  1.0044973964E+02  7.6402187758E+02 -8.6177383870E+02  1.1869514533E+03  2.6903535800E+02 0. 9.
       1    1    3    0  102    0 -3.0824995135E+02 -4.7276789141E+01  2.0123793445E+01  3.1250312520E+02  3.3000000000E-01 0. 9.
 1000023    2    4    0    0    0  3.3005299828E+02 -6.2025991438E+02 -1.7633305411E+02  7.7269269792E+02  2.6889276000E+02 0. 9.
       2    1    4    0  101    0 -1.2225278657E+02 -9.6485174059E+01 -7.7626642848E+02  7.9173531532E+02  3.3000000000E-01 0. 9.
 1000022    1    5    0    0    0  1.0806474691E+02  5.7879322436E+02 -5.5343070691E+02  8.1828859211E+02  1.2896157000E+02 0. 9.
      24    2    5    0    0    0 -7.6150072675E+00  1.8522865322E+02 -3.0834313180E+02  3.6866286121E+02  8.0431188000E+01 0. 9.
 1000022    1    7    0    0    0  1.7932603720E+02 -3.9789637498E+02 -1.0190702851E+02  4.6636410865E+02  1.2896157000E+02 0. 9.
      25    2    7    0    0    0  1.5072696108E+02 -2.2236353940E+02 -7.4426025596E+01  3.0632858927E+02  1.2701893900E+02 0. 9.
     -15    1   10    0    0    0 -2.3237241748E+01  1.6635005422E+02 -2.1888647324E+02  2.7591077514E+02  1.7770000000E+00 0. 9.
      16    1   10    0    0    0  1.5622234481E+01  1.8878598998E+01 -8.9456658558E+01  9.2752086072E+01  0.0000000000E+00 0. 9.
     -15    1   12    0    0    0  8.7508809802E+01 -1.0823713853E+02 -1.0249870830E+02  1.7286472423E+02  1.7770000000E+00 0. 9.
      15    1   12    0    0    0  6.3218151275E+01 -1.1412640088E+02  2.8072682708E+01  1.3346386504E+02  1.7770000000E+00 0. 9.
</event>
<event>
    20   259  1.000000E+00  9.644670E+02  7.973934E-03  9.311183E-02
      -1   -1    0    0    0  101  0.0000000000E+00  0.0000000000E+00  1.3336177959E+03  1.3336177959E+03  0.0000000000E+00 0. 9.
      21   -1    0    0  101  102  0.0000000000E+00  0.0000000000E+00 -7.1050204245E+02  7.1050204245E+02  0.0000000000E+00 0. 9.
-2000001    2    1    2    0  103 -1.3249908667E+02  2.1623523035E+02  4.8301178956E+02  1.1318542131E+03  9.9170554500E+02 0. 9.
 1000021    2    1    2  103  102  1.3249908667E+02 -2.1623523035E+02  1.4010396386E+02  9.1226562523E+02  8.6503512500E+02 0. 9.
 1000021    2    3    0  104  103 -1.9259677900E+02  1.4329014277E+02  3.3900446963E+02  9.5960167893E+02  8.6503512500E+02 0. 9.
      -1    1    3    0    0  104  6.0097692329E+01  7.2945087576E+01  1.4400731993E+02  1.7225253414E+02  3.3000000000E-01 0. 9.
 1000024    2    4    0    0    0 -1.9030134778E+02  1.5551034457E+02  4.9902068016E+01  3.6778840449E+02  2.6903535800E+02 0. 9.
      -4    1    4    0    0  102  3.0086728661E+02 -3.7002371333E+02  2.7132548358E+01  4.7767886468E+02  1.5000000000E+00 0. 9.
       3    1    4    0  103    0  2.1933147831E+01 -1.7218615930E+00  6.3069347481E+01  6.6798356064E+01  5.0000000000E-01 0. 9.
 1000024    2    5    0    0    0 -9.6634737645E+01  7.0964488592E+01 -8.3367861606E+01  3.0611183473E+02  2.6903535800E+02 0. 9.
      -4    1    5    0    0  103 -8.2391449333E+01 -2.5654835725E+00  5.2180064772E+02  5.2827369667E+02  1.5000000000E+00 0. 9.
       3    1    5    0  104    0 -1.3570592019E+01  7.4891137754E+01 -9.9428316489E+01  1.2521614753E+02  5.0000000000E-01 0. 9.
 1000022    1    7    0    0    0 -1.5945496473E+02  2.4344690256E+01  4.1453930926E+01  2.1063728219E+02  1.2896157000E+02 0. 9.
      24    2    7    0    0    0 -3.0846383044E+01  1.3116565431E+02  8.4481370901E+00  1.5715112231E+02  8.0431188000E+01 0. 9.
 1000022    1   10    0    0    0 -3.5646256319E+01  1.1891573027E+02 -7.4894490395E+01  1.9404091765E+02  1.2896157000E+02 0. 9.
      24    2   10    0    0    0 -6.0988481327E+01 -4.7951241676E+01 -8.4733712109E+00  1.1207091708E+02  8.0431188000E+01 0. 9.
      -3    1   14    0    0  105  1.9177784181E+01  2.6795415957E+01 -1.9207856247E+01  3.8144114408E+01  5.0000000000E-01 0. 9.
       4    1   14    0  105    0 -5.0024167224E+01  1.0437023836E+02  2.7655993337E+01  1.1900700790E+02  1.5000000000E+00 0. 9.
      -1    1   16    0    0  106  4.9680874308E+00 -2.4634363669E+01 -2.9754309757E+01  3.8948191424E+01  3.3000000000E-01 0. 9.
       2    1   16    0  106    0 -6.5956568758E+01 -2.3316878007E+01  2.1280938546E+01  7.3122725658E+01  3.3000000000E-01 0. 9.
</event>
<event>
    12   230  1.000000E+00  3.366372E+02  7.878734E-03  1.057592E-01
      -1   -1    0    0    0  101  0.0000000000E+00  0.0000000000E+00  1.1952353419E+03  1.1952353419E+03  0.0000000000E+00 0. 9.
       2   -1    0    0  101    0  0.0000000000E+00  0.0000000000E+00 -7.0485922889E+02  7.0485922889E+02  0.0000000000E+00 0. 9.
 1000023    2    1    2    0    0  1.4989818367E+02  1.3606428549E+02  1.1290255602E+03  1.1781277465E+03  2.6889276000E+02 0. 9.
 1000024    2    1    2    0    0 -1.4989818367E+02 -1.3606428549E+02 -6.3864944711E+02  7.2196682431E+02  2.6903535800E+02 0. 9.
 1000022    1    3    0    0    0  7.3067964589E+01  7.8132005895E+01  7.1804982444E+02  7.3733993159E+02  1.2896157000E+02 0. 9.
      25    2    3    0    0    0  7.6830219078E+01  5.7932279596E+01  4.1097573572E+02  4.4078781494E+02  1.2701893900E+02 0. 9.
 1000022    1    4    0    0    0 -1.5848102915E+02 -1.0031175712E+02 -5.5654805053E+02  6.0129485638E+02  1.2896157000E+02 0. 9.
      24    2    4    0    0    0  8.5828454815E+00 -3.5752528369E+01 -8.2101396580E+01  1.2067196793E+02  8.0431188000E+01 0. 9.
       5    1    6    0  102    0 -4.0584666850E+00  1.6706115227E+00 -8.0257808814E+00  1.0330307520E+01  4.8000000000E+00 0. 9.
      -5    1    6    0    0  102  8.0888685763E+01  5.6261668073E+01  4.1900151660E+02  4.3045750742E+02  4.8000000000E+00 0. 9.
     -15    1    8    0    0    0 -4.5642662128E-01 -5.3795397463E+01 -8.4667507434E+01  1.0032894726E+02  1.7770000000E+00 0. 9.
      16    1    8    0    0    0  9.0392721028E+00  1.8042869095E+01  2.5661108545E+00  2.0343020676E+01  0.0000000000E+00 0. 9.
</event>
<event>
    12   230  1.000000E+00  3.139089E+02  7.872492E-03  1.067219E-01
      -1   -1    0    0    0  101  0.0000000000E+00  0.0000000000E+00  1.3121675580E+02  1.3121675580E+02  0.0000000000E+00 0. 9.
       2   -1    0    0  101    0  0.0000000000E+00  0.0000000000E+00 -7.7875237789E+02  7.7875237789E+02  0.0000000000E+00 0. 9.
 1000023    2    1    2    0    0 -9.5337273828E+01  1.3079719202E+02 -4.0965706666E+02  5.1606136250E+02  2.6889276000E+02 0. 9.
 1000024    2    1    2    0    0  9.5337273828E+01 -1.3079719202E+02 -2.3787855543E+02  3.9390777119E+02  2.6903535800E+02 0. 9.
 1000022    1    3    0    0    0 -6.3449975532E+00  4.9028908257E+01 -1.6751247367E+02  2.1710736563E+02  1.2896157000E+02 0. 9.
      25    2    3    0    0    0 -8.8992276275E+01  8.1768283758E+01 -2.4214459299E+02  2.9895399687E+02  1.2701893900E+02 0. 9.
 1000022    1    4    0    0    0  1.3052601250E+02 -4.9249311475E+01 -1.7632716060E+02  2.5920047979E+02  1.2896157000E+02 0. 9.
      24    2    4    0    0    0 -3.5188738669E+01 -8.1547880540E+01 -6.1551394822E+01  1.3470729140E+02  8.0431188000E+01 0. 9.
       5    1    6    0  102    0  2.6023233617E+01  4.6837992099E+01 -9.1838675581E+01  1.0643490275E+02  4.8000000000E+00 0. 9.
      -5    1    6    0    0  102 -1.1501550989E+02  3.4930291659E+01 -1.5030591741E+02  1.9251909412E+02  4.8000000000E+00 0. 9.
     -13    1    8    0    0    0 -2.7807132133E+01 -9.1489819806E+01 -7.1026757027E+01  1.1911521777E+02  1.0566000000E-01 0. 9.
      14    1    8    0    0    0 -7.3816065361E+00  9.9419392658E+00  9.4753622049E+00  1.5592073638E+01  0.0000000000E+00 0. 9.
</event>
<event>
    12   230  1.000000E+00  2.828405E+02  7.863205E-03  1.081902E-01
      -2   -1    0    0    0  101  0.0000000000E+00  0.0000000000E+00  3.8870084379E+02  3.8870084379E+02  0.0000000000E+00 0. 9.
       1   -1    0    0  101    0  0.0000000000E+00  0.0000000000E+00 -2.1904333546E+02  2.1904333546E+02  0.0000000000E+00 0. 9.
-1000024    2    1    2    0    0  3.8728382651E+01 -7.8467929576E+01  1.0160011627E+01  2.8309071565E+02  2.6903535800E+02 0. 9.
 1000023    2    1    2    0    0 -3.8728382651E+01  7.8467929576E+01  1.5949749671E+02  3.2465346361E+02  2.6889276000E+02 0. 9.
 1000022    1    3    0    0    0  4.4809471033E+01 -1.2476808389E+02 -1.8241422048E+01  1.8584617152E+02  1.2896157000E+02 0. 9.
     -24    2    3    0    0    0 -6.0810883824E+00  4.6300154313E+01  2.8401433675E+01  9.7244544131E+01  8.0431188000E+01 0. 9.
 1000022    1    4    0    0    0  8.9464547126E+00  4.8672685174E+01  4.7001980695E+01  1.4590867712E+02  1.2896157000E+02 0. 9.
      25    2    4    0    0    0 -4.7674837363E+01  2.9795244402E+01  1.1249551601E+02  1.7874478648E+02  1.2701893900E+02 0. 9.
      15    1    6    0    0    0  3.8531388148E+00  6.6825443922E+01  3.1907368715E+01  7.4173610816E+01  1.7770000000E+00 0. 9.
     -16    1    6    0    0    0 -9.9342271972E+00 -2.0525289609E+01 -3.5059350395E+00  2.3070933315E+01  0.0000000000E+00 0. 9.
       5    1    8    0  102    0 -6.5742314854E+01  9.4153401156E+00  3.9189569999E+00  6.6701565317E+01  4.8000000000E+00 0. 9.
      -5    1    8    0    0  102  1.8067477491E+01  2.0379904286E+01  1.0857655901E+02  1.1204322116E+02  4.8000000000E+00 0. 9.
</event>
<event>
    17   258  1.000000E+00  9.749037E+02  7.974920E-03  9.299811E-02
       2   -1    0    0  101    0  0.0000000000E+00  0.0000000000E+00  1.8699225922E+03  1.8699225922E+03  0.0000000000E+00 0. 9.
      21   -1    0    0  102  101  0.0000000000E+00  0.0000000000E+00 -5.9548348036E+02  5.9548348036E+02  0.0000000000E+00 0. 9.
 1000002    2    1    2  103    0  1.8948477741E+02 -2.2101452216E+02  1.1470030504E+03  1.5438434772E+03  9.9150632100E+02 0. 9.
 1000021    2    1    2  102  103 -1.8948477741E+02  2.2101452216E+02  1.2743606142E+02  9.2156259533E+02  8.6503512500E+02 0. 9.
 1000024    2    3    0    0    0 -1.9513127418E+02 -4.1541908360E+02  9.0446376141E+02  1.0493254732E+03  2.6903535800E+02 0. 9.
       1    1    3    0  103    0  3.8461605159E+02  1.9440456145E+02  2.4253928898E+02  4.9451800397E+02  3.3000000000E-01 0. 9.
 1000024    2    4    0    0    0 -6.7724969284E+01  4.7864508968E+01 -3.0283617391E+01  2.8315155663E+02  2.6903535800E+02 0. 9.
      -4    1    4    0    0  103  2.3078092973E+02  1.1778265488E+02  9.5625806937E+01  2.7618677787E+02  1.5000000000E+00 0. 9.
       3    1    4    0  102    0 -3.5254073786E+02  5.5367358313E+01  6.2093871870E+01  3.6222426084E+02  5.0000000000E-01 0. 9.
 1000022    1    5    0    0    0 -1.4716944249E+02 -2.1799573803E+02  3.7002636449E+02  4.7194447084E+02  1.2896157000E+02 0. 9.
      24    2    5    0    0    0 -4.7961831693E+01 -1.9742334557E+02  5.3443739692E+02  5.7738100238E+02  8.0431188000E+01 0. 9.
 1000022    1    7    0    0    0  4.6881228021E+01  1.8464657240E+01 -1.4023272537E+01  1.3916368714E+02  1.2896157000E+02 0. 9.
      24    2    7    0    0    0 -1.1460619731E+02  2.9399851727E+01 -1.6260344854E+01  1.4398786949E+02  8.0431188000E+01 0. 9.
     -11    1   11    0    0    0  3.3453495571E+00 -5.5291662094E+01  7.1756636742E+01  9.0649733466E+01  5.1000000000E-04 0. 9.
      12    1   11    0    0    0 -5.1307181251E+01 -1.4213168348E+02  4.6268076018E+02  4.8673126891E+02  0.0000000000E+00 0. 9.
      -1    1   13    0    0  104 -6.5460004058E+01  4.1370429130E+01  2.2070069631E+01  8.0521558673E+01  3.3000000000E-01 0. 9.
       2    1   13    0  104    0 -4.9146193248E+01 -1.1970577402E+01 -3.8330414486E+01  6.3466310817E+01  3.3000000000E-01 0. 9.
</event>
<event>
    15   238  1.000000E+00  7.685563E+02  7.953203E-03  9.557748E-02
       1   -1    0    0  101    0  0.0000000000E+00  0.0000000000E+00  2.3391222413E+03  2.3391222413E+03  0.0000000000E+00 0. 9.
      -1   -1    0    0    0  102  0.0000000000E+00  0.0000000000E+00 -2.2996418630E+02  2.2996418630E+02  0.0000000000E+00 0. 9.
 1000021    2    1    2  101  102 -3.4340586643E+02  2.4991334158E+02  1.4176425522E+03  1.7141704818E+03  8.6503512500E+02 0. 9.
 1000023    2    1    2    0    0  3.4340586643E+02 -2.4991334158E+02  6.9151550282E+02  8.5491594582E+02  2.6889276000E+02 0. 9.
-1000024    2    3    0    0    0 -8.2924704093E+01  7.5540377747E+01  1.0591874400E+03  1.0985631125E+03  2.6903535800E+02 0. 9.
       4    1    3    0  101    0 -2.7264521072E+02  3.3028673368E+01  5.4251757534E+01  2.7994965153E+02  1.5000000000E+00 0. 9.
      -3    1    3    0    0  102  1.2164048381E+01  1.4134429047E+02  3.0420335468E+02  3.3565771780E+02  5.0000000000E-01 0. 9.
 1000022    1    4    0    0    0  1.5084124152E+02 -7.5173000223E+01  3.2034394011E+02  3.8425953028E+02  1.2896157000E+02 0. 9.
      25    2    4    0    0    0  1.9256462492E+02 -1.7474034136E+02  3.7117156271E+02  4.7065641555E+02  1.2701893900E+02 0. 9.
 1000022    1    5    0    0    0  3.3535367248E+01  5.0343583812E+01  4.2317074985E+02  4.4650158718E+02  1.2896157000E+02 0. 9.
     -24    2    5    0    0    0 -1.1646007134E+02  2.5196793935E+01  6.3601669013E+02  6.5206152529E+02  8.0431188000E+01 0. 9.
       5    1    9    0  103    0  1.4627152927E+02 -1.5806873218E+02  2.0531084739E+02  2.9758472478E+02  4.8000000000E+00 0. 9.
      -5    1    9    0    0  103  4.6293095647E+01 -1.6671609174E+01  1.6586071532E+02  1.7307169077E+02  4.8000000000E+00 0. 9.
      11    1   11    0    0    0 -1.0964001280E+01  3.2133513421E+01  2.3060945529E+02  2.3309545872E+02  5.1000000000E-04 0. 9.
     -12    1   11    0    0    0 -1.0549607006E+02 -6.9367194855E+00  4.0540723484E+02  4.1896606657E+02  0.0000000000E+00 0. 9.
</event>
<event>
    12   230  1.000000E+00  2.775167E+02  7.861513E-03  1.084623E-01
      -2   -1    0    0    0  101  0.0000000000E+00  0.0000000000E+00  1.8781110456E+02  1.8781110456E+02  0.0000000000E+00 0. 9.
       1   -1    0    0  101    0  0.0000000000E+00  0.0000000000E+00 -4.4057517481E+02  4.4057517481E+02  0.0000000000E+00 0. 9.
-1000024    2    1    2    0    0 -6.0809963459E+01  3.1240939712E+01 -4.3735127448E+01  2.8101002330E+02  2.6903535800E+02 0. 9.
 1000023    2    1    2    0    0  6.0809963459E+01 -3.1240939712E+01 -2.0902894281E+02  3.4737625607E+02  2.6889276000E+02 0. 9.
 1000022    1    3    0    0    0 -8.3819359746E+01  7.9708785294E+01  3.7920858614E+00  1.7327620141E+02  1.2896157000E+02 0. 9.
     -24    2    3    0    0    0  2.3009396287E+01 -4.8467845582E+01 -4.7527213309E+01  1.0773382190E+02  8.0431188000E+01 0. 9.
 1000022    1    4    0    0    0  6.4220223718E+01 -4.0176909147E+01 -1.2329430653E+02  1.9383238564E+02  1.2896157000E+02 0. 9.
      25    2    4    0    0    0 -3.4102602582E+00  8.9359694351E+00 -8.5734636276E+01  1.5354387043E+02  1.2701893900E+02 0. 9.
      15    1    6    0    0    0 -1.2741288570E+00 -5.7423647065E+01 -4.6534989905E+00  5.7653373088E+01  1.7770000000E+00 0. 9.
     -16    1    6    0    0    0  2.4283525144E+01  8.9558014826E+00 -4.2873714319E+01  5.0080448811E+01  0.0000000000E+00 0. 9.
       5    1    8    0  102    0  5.4968550223E+01 -1.2451738750E+01 -1.3571576349E+01  5.8170568126E+01  4.8000000000E+00 0. 9.
      -5    1    8    0    0  102 -5.8378810481E+01  2.1387708185E+01 -7.2163059927E+01  9.5373302305E+01  4.8000000000E+00 0. 9.
</event>
<event>
    14   243  1.000000E+00  1.088485E+03  7.985023E-03  9.184950E-02
      -2   -1    0    0    0  101  0.0000000000E+00  0.0000000000E+00  6.5389957997E+02  6.5389957997E+02  0.0000000000E+00 0. 9.
       2   -1    0    0  102    0  0.0000000000E+00  0.0000000000E+00 -1.8483702870E+03  1.8483702870E+03  0.0000000000E+00 0. 9.
 1000021    2    1    2  103  101  1.8392940383E+02  6.3457417375E+02 -7.7298059159E+02  1.3350277788E+03  8.6503512500E+02 0. 9.
 1000021    2    1    2  102  103 -1.8392940383E+02 -6.3457417375E+02 -4.2149011544E+02  1.1672420882E+03  8.6503512500E+02 0. 9.
 1000022    1    3    0    0    0  2.7773157515E-02 -1.6077748612E+02 -3.5506700871E+02  4.1055215019E+02  1.2896157000E+02 0. 9.
       1    1    3    0  103    0  1.2668915880E+02  5.1207668473E+02 -3.3071648002E+02  6.2261237786E+02  3.3000000000E-01 0. 9.
      -1    1    3    0    0  101  5.7212471874E+01  2.8327497514E+02 -8.7197102861E+01  3.0186325071E+02  3.3000000000E-01 0. 9.
-1000024    2    4    0    0    0 -3.6396825384E+02 -2.3009209792E+02 -1.3157451613E+02  5.2450656857E+02  2.6903535800E+02 0. 9.
       4    1    4    0  102    0 -9.9498102755E+01 -1.3311936990E+02 -1.7006018397E+01  1.6706912868E+02  1.5000000000E+00 0. 9.
      -3    1    4    0    0  103  2.7953695277E+02 -2.7136270594E+02 -2.7290958091E+02  4.7566639096E+02  5.0000000000E-01 0. 9.
 1000022    1    8    0    0    0 -8.4102344380E+01 -1.1602812435E+02 -2.6556970244E+01  1.9460752600E+02  1.2896157000E+02 0. 9.
     -24    2    8    0    0    0 -2.7986590946E+02 -1.1406397357E+02 -1.0501754589E+02  3.2989904257E+02  8.0431188000E+01 0. 9.
       1    1   12    0  104    0 -8.0473037715E+01 -1.6846128188E+01  4.8309997192E+00  8.2359876714E+01  3.3000000000E-01 0. 9.
      -2    1   12    0    0  104 -1.9939287174E+02 -9.7217845380E+01 -1.0984854561E+02  2.4753916586E+02  3.3000000000E-01 0. 9.
</event>
<event>
    12   226  1.000000E+00  3.618544E+02  7.885195E-03  1.047825E-01
       2   -1    0    0  101    0  0.0000000000E+00  0.0000000000E+00  7.9438505254E+02  7.9438505254E+02  0.0000000000E+00 0. 9.
      -2   -1    0    0    0  101  0.0000000000E+00  0.0000000000E+00 -1.8990621709E+02  1.8990621709E+02  0.0000000000E+00 0. 9.
 1000024    2    1    2    0    0 -9.1554554492E+01  2.2400070600E+02  4.8107506590E+02  6.0197325158E+02  2.6903535800E+02 0. 9.
-1000024    2    1    2    0    0  9.1554554492E+01 -2.2400070600E+02  1.2340376955E+02  3.8231801805E+02  2.6903535800E+02 0. 9.
 1000022    1    3    0    0    0  2.2161097148E+00  5.1655382893E+01  2.6509067064E+02  2.9929473754E+02  1.2896157000E+02 0. 9.
      24    2    3    0    0    0 -9.3770664206E+01  1.7234532310E+02  2.1598439526E+02  3.0267851404E+02  8.0431188000E+01 0. 9.
 1000022    1    4    0    0    0  6.7852620217E+01 -3.3448321079E+01  8.0321631970E+01  1.6972159365E+02  1.2896157000E+02 0. 9.
     -24    2    4    0    0    0  2.3701934274E+01 -1.9055238492E+02  4.3082137582E+01  2.1259642440E+02  8.0431188000E+01 0. 9.
      -1    1    6    0    0  102 -8.2059430351E+01  7.3384736527E+01  9.1040981146E+01  1.4285530726E+02  3.3000000000E-01 0. 9.
       4    1    6    0  102    0 -1.1711233855E+01  9.8960586576E+01  1.2494341411E+02  1.5982320678E+02  1.5000000000E+00 0. 9.
      11    1    8    0    0    0  3.1989531365E+01 -4.1277241897E+01  3.5014012326E+01  6.2873856848E+01  5.1000000000E-04 0. 9.
     -12    1    8    0    0    0 -8.2875970903E+00 -1.4927514302E+02  8.0681252565E+00  1.4972256755E+02  0.0000000000E+00 0. 9.
</event>
<event>
    12   230  1.000000E+00  2.828695E+02  7.863214E-03  1.081888E-01
       1   -1    0    0  101    0  0.0000000000E+00  0.0000000000E+00  7.7455029264E+02  7.7455029264E+02  0.0000000000E+00 0. 9.
      -2   -1    0    0    0  101  0.0000000000E+00  0.0000000000E+00 -2.2896637228E+02  2.2896637228E+02  0.0000000000E+00 0. 9.
 1000023    2    1    2    0    0  6.9067224194E+01  5.3881611357E+01  6.4447658512E+02  7.0379463954E+02  2.6889276000E+02 0. 9.
-1000024    2    1    2    0    0 -6.9067224194E+01 -5.3881611357E+01 -9.8892664760E+01  2.9972202538E+02  2.6903535800E+02 0. 9.
 1000022    1    3    0    0    0  4.8805947846E+01  4.3359633391E+01  2.5040818695E+02  2.8913219292E+02  1.2896157000E+02 0. 9.
      25    2    3    0    0    0  2.0261276348E+01  1.0521977966E+01  3.9406839817E+02  4.1466244663E+02  1.2701893900E+02 0. 9.
 1000022    1    4    0    0    0 -7.0209399830E-02 -7.8119478308E+01  2.8870481580E+00  1.5080477249E+02  1.2896157000E+02 0. 9.
     -24    2    4    0    0    0 -6.8997014794E+01  2.4237866951E+01 -1.0177971292E+02  1.4891725289E+02  8.0431188000E+01 0. 9.
       5    1    6    0  102    0 -3.2712685290E+01  1.2383314786E+01  3.2766486168E+02  3.2956147810E+02  4.8000000000E+00 0. 9.
      -5    1    6    0    0  102  5.2973961638E+01 -1.8613368199E+00  6.6403536492E+01  8.5100968532E+01  4.8000000000E+00 0. 9.
       3    1    8    0  103    0 -5.4287454626E+01 -2.0638403123E+01 -3.7478253213E+01  6.9122650970E+01  5.0000000000E-01 0. 9.
      -4    1    8    0    0  103 -1.4709560168E+01  4.4876270074E+01 -6.4301459705E+01  7.9794601924E+01  1.5000000000E+00 0. 9.
</event>
<event>
    15   276  1.000000E+00  1.008724E+03  7.978043E-03  9.263961E-02
      -1   -1    0    0    0  101  0.0000000000E+00  0.0000000000E+00  8.8607060261E+02  8.8607060261E+02  0.0000000000E+00 0. 9.
       2   -1    0    0  101    0  0.0000000000E+00  0.0000000000E+00 -1.2668342951E+03  1.2668342951E+03  0.0000000000E+00 0. 9.
-1000001    2    1    2    0  102 -1.6824894864E+02 -5.9530821748E+01 -5.1983601127E+02  1.1361125411E+03  9.9431916400E+02 0. 9.
 2000002    2    1    2  102    0  1.6824894864E+02  5.9530821748E+01  1.3907231879E+02  1.0167923566E+03  9.9129912700E+02 0. 9.
 1000021    2    3    0  103  102 -2.1684531241E+02 -7.3418122443E+01 -3.5323749631E+02  9.6201590761E+02  8.6503512500E+02 0. 9.
      -1    1    3    0    0  103  4.8596363771E+01  1.3887300695E+01 -1.6659851496E+02  1.7409663345E+02  3.3000000000E-01 0. 9.
 1000022    1    4    0    0    0 -4.0018530020E+01 -4.0081834090E+01 -4.0337590674E+02  4.2726016061E+02  1.2896157000E+02 0. 9.
       2    1    4    0  102    0  2.0826747866E+02  9.9612655837E+01  5.4244822553E+02  5.8953219602E+02  3.3000000000E-01 0. 9.
 1000024    2    5    0    0    0  1.4289081846E+02  3.0987143007E+01 -8.9566138317E+01  3.1902994533E+02  2.6903535800E+02 0. 9.
      -4    1    5    0    0  102 -1.0915042202E+02 -2.6194944457E+02 -1.7741339975E+02  3.3467759194E+02  1.5000000000E+00 0. 9.
       3    1    5    0  103    0 -2.5058570886E+02  1.5754417912E+02 -8.6257958246E+01  3.0830837034E+02  5.0000000000E-01 0. 9.
 1000022    1    9    0    0    0  6.8297297820E+01  6.5094712468E+01 -1.2041660354E+02  2.0008270147E+02  1.2896157000E+02 0. 9.
      24    2    9    0    0    0  7.4593520644E+01 -3.4107569461E+01  3.0850465222E+01  1.1894724387E+02  8.0431188000E+01 0. 9.
      -3    1   13    0    0  104 -1.5511079732E+01 -4.9879768416E+00  1.6440951419E+01  2.3152286950E+01  5.0000000000E-01 0. 9.
       4    1   13    0  104    0  9.0104600376E+01 -2.9119592620E+01  1.4409513803E+01  9.5794956920E+01  1.5000000000E+00 0. 9.
</event>
<event>
    19   271  1.000000E+00  1.008531E+03  7.978026E-03  9.264161E-02
       2   -1    0    0  101    0  0.0000000000E+00  0.0000000000E+00  1.7322494476E+03  1.7322494476E+03  0.0000000000E+00 0. 9.
       2   -1    0    0  102    0  0.0000000000E+00  0.0000000000E+00 -2.4219092751E+03  2.4219092751E+03  0.0000000000E+00 0. 9.
 1000002    2    1    2  102    0 -2.9881343839E+01  1.8209325735E+02  1.4630126255E+03  1.7769472632E+03  9.9150632100E+02 0. 9.
 1000002    2    1    2  101    0  2.9881343839E+01 -1.8209325735E+02 -2.1526724529E+03  2.3772114595E+03  9.9150632100E+02 0. 9.
 1000021    2    3    0  102  103 -1.1195588005E+02  9.3770350573E+01  1.3598166276E+03  1.6182441181E+03  8.6503512500E+02 0. 9.
       2    1    3    0  103    0  8.2074536210E+01  8.8322906776E+01  1.0319599792E+02  1.5870314503E+02  3.3000000000E-01 0. 9.
 1000024    2    4    0    0    0 -1.8310998670E+02  1.6865935722E+02 -2.8312401066E+02  4.6315707408E+02  2.6903535800E+02 0. 9.
       1    1    4    0  101    0  2.1299133053E+02 -3.5075261457E+02 -1.8695484423E+03  1.9140543854E+03  3.3000000000E-01 0. 9.
-1000024    2    5    0    0    0  7.7363723774E+01  1.4147725165E+02  5.9321912433E+02  6.7103644597E+02  2.6903535800E+02 0. 9.
       4    1    5    0  102    0  3.8711535428E+01 -2.3305133569E+02  4.8847002652E+02  5.4260181059E+02  1.5000000000E+00 0. 9.
      -3    1    5    0    0  103 -2.2803113925E+02  1.8534443461E+02  2.7812747673E+02  4.0460586157E+02  5.0000000000E-01 0. 9.
 1000022    1    7    0    0    0 -1.3546258439E+02  8.2947918855E+01 -7.2064342059E+01  2.1692124134E+02  1.2896157000E+02 0. 9.
      24    2    7    0    0    0 -4.7647402309E+01  8.5711438366E+01 -2.1105966860E+02  2.4623583274E+02  8.0431188000E+01 0. 9.
 1000022    1    9    0    0    0  2.8238320725E+01 -5.8991451117E+00  1.8930446398E+02  2.3086677823E+02  1.2896157000E+02 0. 9.
     -24    2    9    0    0    0  4.9125403049E+01  1.4737639677E+02  4.0391466034E+02  4.4016966773E+02  8.0431188000E+01 0. 9.
      -1    1   13    0    0  104  1.7450478334E+01  2.8048702080E+01 -9.9149023550E+01  1.0450783058E+02  3.3000000000E-01 0. 9.
       2    1   13    0  104    0 -6.5097880643E+01  5.7662736286E+01 -1.1191064505E+02  1.4172800216E+02  3.3000000000E-01 0. 9.
       1    1   15    0  105    0  5.7631212250E+01  1.5367659645E+02  3.7373903128E+02  4.0818969282E+02  3.3000000000E-01 0. 9.
      -2    1   15    0    0  105 -8.5058092016E+00 -6.3001996799E+00  3.0175629060E+01  3.1979974912E+01  3.3000000000E-01 0. 9.
</event>
<event>
    12   230  1.000000E+00  3.984887E+02  7.893837E-03  1.035062E-01
      -1   -1    0    0    0  101  0.0000000000E+00  0.0000000000E+00  2.6221430260E+02  2.6221430260E+02  0.0000000000E+00 0. 9.
       2   -1    0    0  101    0  0.0000000000E+00  0.0000000000E+00 -6.2406624074E+02  6.2406624074E+02  0.0000000000E+00 0. 9.
 1000023    2    1    2    0    0 -2.6922377585E+02  1.1819544384E+02 -1.0464746963E+02  4.1195389755E+02  2.6889276000E+02 0. 9.
 1000024    2    1    2    0    0  2.6922377585E+02 -1.1819544384E+02 -2.5720446851E+02  4.7432664578E+02  2.6903535800E+02 0. 9.
 1000022    1    3    0    0    0 -1.0466300549E+02 -1.1761591633E+01 -1.8182459667E+01  1.6749438239E+02  1.2896157000E+02 0. 9.
      23    2    3    0    0    0 -1.6456077036E+02  1.2995703548E+02 -8.6465009966E+01  2.4445951516E+02  9.1187600000E+01 0. 9.
 1000022    1    4    0    0    0  2.1616593412E+02 -1.5141891323E+02 -2.1495527521E+02  3.6399485606E+02  1.2896157000E+02 0. 9.
      24    2    4    0    0    0  5.3057841723E+01  3.3223469387E+01 -4.2249193291E+01  1.1033178972E+02  8.0431188000E+01 0. 9.
       4    1    6    0  102    0 -4.0245357879E+01  9.6301039656E+00  1.4813847621E+01  4.3978720019E+01  1.5000000000E+00 0. 9.
      -4    1    6    0    0  102 -1.2431541248E+02  1.2032693151E+02 -1.0127885759E+02  2.0048079514E+02  1.5000000000E+00 0. 9.
      -1    1    8    0    0  103  1.1854991547E+01  4.7610829215E+01 -4.5033575404E+01  6.6599276999E+01  3.3000000000E-01 0. 9.
       2    1    8    0  103    0  4.1202850175E+01 -1.4387359827E+01  2.7843821124E+00  4.3732512723E+01  3.3000000000E-01 0. 9.
</event>
<event>
    20   259  1.000000E+00  9.464807E+02  7.972211E-03  9.331140E-02
       2   -1    0    0  101    0  0.0000000000E+00  0.0000000000E+00  2.4412029798E+03  2.4412029798E+03  0.0000000000E+00 0. 9.
      21   -1    0    0  102  101  0.0000000000E+00  0.0000000000E+00 -3.8419926611E+02  3.8419926611E+02  0.0000000000E+00 0. 9.
 2000002    2    1    2  103    0  1.2939662413E+02  1.1662897148E+02  1.4047451347E+03  1.7280997240E+03  9.9129912700E+02 0. 9.
 1000021    2    1    2  102  103 -1.2939662413E+02 -1.1662897148E+02  6.5225857900E+02  1.0973025220E+03  8.6503512500E+02 0. 9.
 1000021    2    3    0  103  104  6.6149032721E+01  2.1099297712E+02  1.2412787551E+03  1.5290364438E+03  8.6503512500E+02 0. 9.
       2    1    3    0  104    0  6.3247591404E+01 -9.4364005635E+01  1.6346637956E+02  1.9906328020E+02  3.3000000000E-01 0. 9.
 1000024    2    4    0    0    0 -2.5461333133E+02  1.1041376131E+02  4.1481115882E+02  5.6698101248E+02  2.6903535800E+02 0. 9.
      -2    1    4    0    0  103 -7.0859020336E+01 -2.3967833760E+02  4.2471785284E+01  2.5351660246E+02  3.3000000000E-01 0. 9.
       1    1    4    0  102    0  1.9607572754E+02  1.2635604808E+01  1.9497563490E+02  2.7680490701E+02  3.3000000000E-01 0. 9.
-1000024    2    5    0    0    0  1.3001325512E+02 -1.4692743607E+01  8.9802078851E+02  9.4654143263E+02  2.6903535800E+02 0. 9.
       4    1    5    0  103    0 -9.5472272570E+01  2.7645234144E+02  4.0300989466E+02  4.9795589876E+02  1.5000000000E+00 0. 9.
      -3    1    5    0    0  104  3.1608050168E+01 -5.0766620717E+01 -5.9751928047E+01  8.4539112367E+01  5.0000000000E-01 0. 9.
 1000022    1    7    0    0    0 -3.2505951925E+01  3.3151127931E+01  1.6645798228E+02  2.1562694775E+02  1.2896157000E+02 0. 9.
      24    2    7    0    0    0 -2.2210737941E+02  7.7262633382E+01  2.4835317655E+02  3.5135406474E+02  8.0431188000E+01 0. 9.
 1000022    1   10    0    0    0  1.6067236066E+02 -2.2830928061E+01  7.0909072724E+02  7.3876762568E+02  1.2896157000E+02 0. 9.
     -24    2   10    0    0    0 -3.0659105532E+01  8.1381844536E+00  1.8893006128E+02  2.0777380695E+02  8.0431188000E+01 0. 9.
      -3    1   14    0    0  105 -1.5990547685E+02  3.9830078062E+01  1.1988923528E+02  2.0378880092E+02  5.0000000000E-01 0. 9.
       4    1   14    0  105    0 -6.2201902561E+01  3.7432555319E+01  1.2846394127E+02  1.4756526382E+02  1.5000000000E+00 0. 9.
       3    1   16    0  106    0 -4.1055364513E+01  3.5777203813E+01  9.7457887871E+01  1.1164157459E+02  5.0000000000E-01 0. 9.
      -4    1   16    0    0  106  1.0396258981E+01 -2.7639019359E+01  9.1472173404E+01  9.6132232364E+01  1.5000000000E+00 0. 9.
</event>
<event>
    12   226  1.000000E+00  3.609851E+02  7.884980E-03  1.048147E-01
       1   -1    0    0  101    0  0.0000000000E+00  0.0000000000E+00  5.9687647338E+02  5.9687647338E+02  0.0000000000E+00 0. 9.
      -1   -1    0    0    0  101  0.0000000000E+00  0.0000000000E+00 -2.1889529920E+02  2.1889529920E+02  0.0000000000E+00 0. 9.
-1000024    2    1    2    0    0 -1.2379050671E+02 -2.0641246281E+02  1.6808440841E+02  3.9819917951E+02  2.6903535800E+02 0. 9.
 1000024    2    1    2    0    0  1.2379050671E+02  2.0641246281E+02  2.0989676577E+02  4.1757259308E+02  2.6903535800E+02 0. 9.
 1000022    1    3    0    0    0 -8.5551303544E+00 -8.4661477868E+01  1.1182188653E+01  1.5490927658E+02  1.2896157000E+02 0. 9.
     -24    2    3    0    0    0 -1.1523537636E+02 -1.2175098494E+02  1.5690221976E+02  2.4328990293E+02  8.0431188000E+01 0. 9.
 1000022    1    4    0    0    0 -5.0942386070E+00  5.3518405943E+01  4.7036387408E+01  1.4742346936E+02  1.2896157000E+02 0. 9.
      24    2    4    0    0    0  1.2888474532E+02  1.5289405686E+02  1.6286037836E+02  2.7014912371E+02  8.0431188000E+01 0. 9.
       3    1    6    0  102    0 -2.7996767588E+01 -1.2366508850E+01 -3.0654591545E+00  3.0763559228E+01  5.0000000000E-01 0. 9.
      -4    1    6    0    0  102 -8.7238608771E+01 -1.0938447609E+02  1.5996767891E+02  2.1252634370E+02  1.5000000000E+00 0. 9.
      -3    1    8    0    0  103  9.6934471970E+01  5.5791613477E+01  1.0071268705E+02  1.5050678165E+02  5.0000000000E-01 0. 9.
       4    1    8    0  103    0  3.1950273350E+01  9.7102443387E+01  6.2147691313E+01  1.1964234206E+02  1.5000000000E+00 0. 9.
</event>
<event>
    12   217  1.000000E+00  3.112647E+02  7.871738E-03  1.068396E-01
       1   -1    0    0  101    0  0.0000000000E+00  0.0000000000E+00  9.2283355926E+02  9.2283355926E+02  0.0000000000E+00 0. 9.
      -1   -1    0    0    0  101  0.0000000000E+00  0.0000000000E+00 -1.3013534892E+02  1.3013534892E+02  0.0000000000E+00 0. 9.
 1000023    2    1    2    0    0  1.5103598554E+02 -4.2077593979E+01  6.2779044997E+02  7.0071860137E+02  2.6889276000E+02 0. 9.
 1000023    2    1    2    0    0 -1.5103598554E+02  4.2077593979E+01  1.6490776036E+02  3.5225030682E+02  2.6889276000E+02 0. 9.
 1000022    1    3    0    0    0  7.5611494650E+01  2.0017940785E+01  3.1670568972E+02  3.5078682489E+02  1.2896157000E+02 0. 9.
      25    2    3    0    0    0  7.5424490892E+01 -6.2095534763E+01  3.1108476025E+02  3.4993177647E+02  1.2701893900E+02 0. 9.
 1000022    1    4    0    0    0 -9.0989064297E+01  4.9445902101E+01  1.2078898219E+02  2.0480471628E+02  1.2896157000E+02 0. 9.
      25    2    4    0    0    0 -6.0046921244E+01 -7.3683081227E+00  4.4118778173E+01  1.4744559053E+02  1.2701893900E+02 0. 9.
       5    1    6    0  102    0  9.4144933498E+01 -8.6517312150E+01  2.6551096503E+02  2.9473314431E+02  4.8000000000E+00 0. 9.
      -5    1    6    0    0  102 -1.8720442606E+01  2.4421777387E+01  4.5573795221E+01  5.5198632165E+01  4.8000000000E+00 0. 9.
       5    1    8    0  103    0 -5.5513061571E+01 -6.3079145640E+01  3.2054931061E+01  9.0062407391E+01  4.8000000000E+00 0. 9.
      -5    1    8    0    0  103 -4.5338596732E+00  5.5710837517E+01  1.2063847112E+01  5.7383183142E+01  4.8000000000E+00 0. 9.
</event>
<event>
    12   226  1.000000E+00  2.803168E+02  7.862407E-03  1.083184E-01
      -2   -1    0    0    0  101  0.0000000000E+00  0.0000000000E+00  7.2902449308E+01  7.2902449308E+01  0.0000000000E+00 0. 9.
       2   -1    0    0  101    0  0.0000000000E+00  0.0000000000E+00 -1.1422262037E+03  1.1422262037E+03  0.0000000000E+00 0. 9.
-1000024    2    1    2    0    0  4.0294980970E+00  7.8620949889E+01 -3.9041814342E+02  4.8062858965E+02  2.6903535800E+02 0. 9.
 1000024    2    1    2    0    0 -4.0294980970E+00 -7.8620949889E+01 -6.7890561093E+02  7.3450006332E+02  2.6903535800E+02 0. 9.
 1000022    1    3    0    0    0 -2.6801767908E+00 -3.5667525449E+01 -2.4279273235E+02  2.7723411251E+02  1.2896157000E+02 0. 9.
     -24    2    3    0    0    0  6.7096748878E+00  1.1428847534E+02 -1.4762541107E+02  2.0339447714E+02  8.0431188000E+01 0. 9.
 1000022    1    4    0    0    0 -6.9386338505E+01 -5.4082067737E+01 -2.6931402568E+02  3.1128839520E+02  1.2896157000E+02 0. 9.
      24    2    4    0    0    0  6.5356840408E+01 -2.4538882152E+01 -4.0959158524E+02  4.2321166812E+02  8.0431188000E+01 0. 9.
       1    1    6    0  102    0 -1.9413877661E+01  1.0142873787E+02 -1.3872914155E+02  1.7294672916E+02  3.3000000000E-01 0. 9.
      -2    1    6    0    0  102  2.6123552549E+01  1.2859737471E+01 -8.8962695232E+00  3.0447747979E+01  3.3000000000E-01 0. 9.
     -13    1    8    0    0    0  6.1903176906E+01 -4.3252348433E+01 -3.8380510600E+02  3.9116382695E+02  1.0566000000E-01 0. 9.
      14    1    8    0    0    0  3.4536635013E+00  1.8713466281E+01 -2.5786479237E+01  3.2047841164E+01  0.0000000000E+00 0. 9.
</event>
<event>
    23   271  1.000000E+00  1.189946E+03  7.993212E-03  9.094117E-02
       2   -1    0    0  101    0  0.0000000000E+00  0.0000000000E+00  2.8609276252E+03  2.8609276252E+03  0.0000000000E+00 0. 9.
       2   -1    0    0  102    0  0.0000000000E+00  0.0000000000E+00 -5.1289633551E+02  5.1289633551E+02  0.0000000000E+00 0. 9.
 1000002    2    1    2  102    0 -2.9200616252E+02 -5.8959137442E+02  1.4897042789E+03  1.9066172167E+03  9.9150632100E+02 0. 9.
 1000002    2    1    2  101    0  2.9200616252E+02  5.8959137442E+02  8.5832701075E+02  1.4672067440E+03  9.9150632100E+02 0. 9.
 1000024    2    3    0    0    0 -3.5789043966E+02 -2.3383590836E+02  1.4584736005E+03  1.5434668983E+03  2.6903535800E+02 0. 9.
       1    1    3    0  102    0  6.5884277144E+01 -3.5575546606E+02  3.1230678451E+01  3.6315031844E+02  3.3000000000E-01 0. 9.
 1000021    2    4    0  101  103  1.4000692799E+02  4.7999674733E+02  7.6169206845E+02  1.2563675386E+03  8.6503512500E+02 0. 9.
       2    1    4    0  103    0  1.5199923453E+02  1.0959462709E+02  9.6634942300E+01  2.1083920546E+02  3.3000000000E-01 0. 9.
 1000022    1    5    0    0    0 -1.4060097826E+02 -6.5572049834E+01  8.0708215088E+02  8.3191406624E+02  1.2896157000E+02 0. 9.
      24    2    5    0    0    0 -2.1728946140E+02 -1.6826385852E+02  6.5139144961E+02  7.1155283202E+02  8.0431188000E+01 0. 9.
 1000024    2    7    0    0    0  2.3950070426E+00  4.2323581213E+02  6.0335687148E+02  7.8457238477E+02  2.6903535800E+02 0. 9.
      -6    2    7    0    0  103 -1.7129631323E+01  1.5464832565E+02  4.9353453946E+00  2.3287792195E+02  1.7320000000E+02 0. 9.
       5    1    7    0  101    0  1.5474155227E+02 -9.7887390457E+01  1.5339985158E+02  2.3891723184E+02  4.8000000000E+00 0. 9.
      -1    1   10    0    0  104 -4.7386264627E+01 -1.1099240386E+01  1.7916121808E+02  1.8565425440E+02  3.3000000000E-01 0. 9.
       2    1   10    0  104    0 -1.6990319677E+02 -1.5716461814E+02  4.7223023153E+02  5.2589857762E+02  3.3000000000E-01 0. 9.
 1000022    1   11    0    0    0  8.6399263272E+00  1.7192250675E+02  1.5802901855E+02  2.6690120624E+02  1.2896157000E+02 0. 9.
      24    2   11    0    0    0 -6.2449192846E+00  2.5131330539E+02  4.4532785293E+02  5.1767117853E+02  8.0431188000E+01 0. 9.
     -24    2   12    0    0    0 -2.2965889208E+01  1.7890939204E+02 -1.8433153253E+01  1.9835563962E+02  8.0431188000E+01 0. 9.
      -5    1   12    0    0  103  5.8362578847E+00 -2.4261066384E+01  2.3368498648E+01  3.4522282330E+01  4.8000000000E+00 0. 9.
     -15    1   17    0    0    0 -2.6126742390E+01  2.3806478021E+02  4.1382140433E+02  4.7813048287E+02  1.7770000000E+00 0. 9.
      16    1   17    0    0    0  1.9881823106E+01  1.3248525177E+01  3.1506448602E+01  3.9540695655E+01  0.0000000000E+00 0. 9.
       3    1   18    0  105    0  2.0200142408E+01  1.0202990622E+02 -3.2692633907E+01  1.0902846339E+02  5.0000000000E-01 0. 9.
      -4    1   18    0    0  105 -4.3166031615E+01  7.6879485814E+01  1.4259480654E+01  8.9327176229E+01  1.5000000000E+00 0. 9.
</event>
<event>
    12   230  1.000000E+00  3.072709E+02  7.870586E-03  1.070198E-01
      -1   -1    0    0    0  101  0.0000000000E+00  0.0000000000E+00  4.4085705562E+02  4.4085705562E+02  0.0000000000E+00 0. 9.
       2   -1    0    0  101    0  0.0000000000E+00  0.0000000000E+00 -2.4722449666E+02  2.4722449666E+02  0.0000000000E+00 0. 9.
 1000023    2    1    2    0    0 -1.4855640505E+02 -2.1703120761E+00 -2.9013240549E+01  3.0857543688E+02  2.6889276000E+02 0. 9.
 1000024    2    1    2    0    0  1.4855640505E+02  2.1703120761E+00  2.2264579951E+02  3.7950611541E+02  2.6903535800E+02 0. 9.
 1000022    1    3    0    0    0 -4.2204114206E+01  7.1872701899E+00 -4.1770946046E+01  1.4215745699E+02  1.2896157000E+02 0. 9.
      25    2    3    0    0    0 -1.0635229085E+02 -9.3575822660E+00  1.2757705497E+01  1.6641797988E+02  1.2701893900E+02 0. 9.
 1000022    1    4    0    0    0  4.7341874218E+01  6.9461675286E+01  1.5627258529E+02  2.1935903181E+02  1.2896157000E+02 0. 9.
      24    2    4    0    0    0  1.0121453083E+02 -6.7291363209E+01  6.6373214226E+01  1.6014708360E+02  8.0431188000E+01 0. 9.
       5    1    6    0  102    0 -1.2412779299E+02  8.5135937468E+00 -1.8607160966E+01  1.2589462542E+02  4.8000000000E+00 0. 9.
      -5    1    6    0    0  102  1.7775502143E+01 -1.7871176013E+01  3.1364866463E+01  4.0523354461E+01  4.8000000000E+00 0. 9.
      -5    1    8    0    0  103  5.2815724581E+01 -8.6786728155E+00  6.4692841187E+01  8.4101271249E+01  4.8000000000E+00 0. 9.
       4    1    8    0  103    0  4.8398806254E+01 -5.8612690394E+01  1.6803730385E+00  7.6045812347E+01  1.5000000000E+00 0. 9.
</event>
<event>
    28   259  1.000000E+00  9.680178E+02  7.974271E-03  9.307297E-02
       1   -1    0    0  101    0  0.0000000000E+00  0.0000000000E+00  1.0172182295E+03  1.0172182295E+03  0.0000000000E+00 0. 9.
      21   -1    0    0  102  101  0.0000000000E+00  0.0000000000E+00 -1.4829847008E+03  1.4829847008E+03  0.0000000000E+00 0. 9.
 2000001    2    1    2  103    0 -2.6211930147E+02  4.9690169659E+01  5.2900002901E+02  1.1552041204E+03  9.9170554500E+02 0. 9.
 1000021    2    1    2  102  103  2.6211930147E+02 -4.9690169659E+01 -9.9476650031E+02  1.3449988100E+03  8.6503512500E+02 0. 9.
 1000021    2    3    0  103  104 -1.2607864659E+02  1.2667303180E+01  5.1209730746E+02  1.0132056580E+03  8.6503512500E+02 0. 9.
       1    1    3    0  104    0 -1.3604065488E+02  3.7022866479E+01  1.6902721547E+01  1.4199846238E+02  3.3000000000E-01 0. 9.
 1000024    2    4    0    0    0  1.8439879651E+02 -1.7407198001E+02 -8.7433906704E+02  9.4929068171E+02  2.6903535800E+02 0. 9.
      -6    2    4    0    0  103  1.0051511824E+02  2.9595281926E+01 -1.8858322865E+02  2.7666052092E+02  1.7320000000E+02 0. 9.
       5    1    4    0  102    0 -2.2794613279E+01  9.4786528421E+01  6.8155795385E+01  1.1904760732E+02  4.8000000000E+00 0. 9.
-1000024    2    5    0    0    0  1.1428922615E+02  1.3130852175E+01  3.2820757542E+02  4.3969839994E+02  2.6903535800E+02 0. 9.
       6    2    5    0  103    0 -1.4971097639E+01  1.8013414857E+02  1.2021358497E+02  2.7770846450E+02  1.7320000000E+02 0. 9.
      -5    1    5    0    0  104 -2.2539677510E+02 -1.8059769756E+02  6.3676147074E+01  2.9579879360E+02  4.8000000000E+00 0. 9.
 1000022    1    7    0    0    0  1.7901887299E+02 -6.9464079757E+01 -4.6823929209E+02  5.2225677253E+02  1.2896157000E+02 0. 9.
      24    2    7    0    0    0  5.3799235239E+00 -1.0460790025E+02 -4.0609977495E+02  4.2703390918E+02  8.0431188000E+01 0. 9.
     -24    2    8    0    0    0  4.6072591737E+01  8.0742933100E+01 -1.4479678786E+02  1.8994049261E+02  8.0431188000E+01 0. 9.
      -5    1    8    0    0  103  5.4442526506E+01 -5.1147651175E+01 -4.3786440787E+01  8.6720028309E+01  4.8000000000E+00 0. 9.
 1000022    1   10    0    0    0 -1.6109851419E+01 -1.8837536551E+00  2.0403056934E+02  2.4191452127E+02  1.2896157000E+02 0. 9.
     -24    2   10    0    0    0  1.3039907757E+02  1.5014605830E+01  1.2417700608E+02  1.9778387866E+02  8.0431188000E+01 0. 9.
      24    2   11    0    0    0  3.0797219688E+01  4.1981510137E+01  1.2588129085E+01  9.6636188516E+01  8.0431188000E+01 0. 9.
       5    1   11    0  103    0 -4.5768317327E+01  1.3815263843E+02  1.0762545589E+02  1.8107227599E+02  4.8000000000E+00 0. 9.
     -13    1   14    0    0    0 -2.5032122400E+00  1.1326055808E+01 -1.4566391656E+01  1.8620863073E+01  1.0566000000E-01 0. 9.
      14    1   14    0    0    0  7.8831357638E+00 -1.1593395606E+02 -3.9153338330E+02  4.0841304611E+02  0.0000000000E+00 0. 9.
      11    1   15    0    0    0  2.4496460194E+01  4.4493203175E+01 -1.4257389532E+01  5.2754097920E+01  5.1000000000E-04 0. 9.
     -12    1   15    0    0    0  2.1576131544E+01  3.6249729925E+01 -1.3053939833E+02  1.3718639469E+02  0.0000000000E+00 0. 9.
      11    1   18    0    0    0  1.0078083171E+02 -2.4888873544E+01  7.6854365267E+01  1.2916201271E+02  5.1000000000E-04 0. 9.
     -12    1   18    0    0    0  2.9618245853E+01  3.9903479374E+01  4.7322640809E+01  6.8621865951E+01  0.0000000000E+00 0. 9.
      -1    1   19    0    0  105  3.9419391977E+01  2.5767733970E+00 -2.0459935586E+01  4.4488718673E+01  3.3000000000E-01 0. 9.
       2    1   19    0  105    0 -8.6221722890E+00  3.9404736740E+01  3.3048064671E+01  5.2147469843E+01  3.3000000000E-01 0. 9.
</event>
<event>
    12   226  1.000000E+00  2.805381E+02  7.862477E-03  1.083071E-01
      -2   -1    0    0    0  101  0.0000000000E+00  0.0000000000E+00  6.6240710639E+01  6.6240710639E+01  0.0000000000E+00 0. 9.
       2   -1    0    0  101    0  0.0000000000E+00  0.0000000000E+00 -1.2675567295E+03  1.2675567295E+03  0.0000000000E+00 0. 9.
-1000024    2    1    2    0    0  5.9415202380E+01 -5.2834271024E+01 -7.6761234592E+02  8.1727006793E+02  2.6903535800E+02 0. 9.
 1000024    2    1    2    0    0 -5.9415202380E+01  5.2834271024E+01 -4.3370367295E+02  5.1652737222E+02  2.6903535800E+02 0. 9.
 1000022    1    3    0    0    0 -7.4185411888E+00 -7.6376335170E+01 -2.7652013614E+02  3.1461540260E+02  1.2896157000E+02 0. 9.
     -24    2    3    0    0    0  6.6833743569E+01  2.3542064146E+01 -4.9109220978E+02  5.0265466532E+02  8.0431188000E+01 0. 9.
 1000022    1    4    0    0    0 -6.5763153248E+01 -2.7873161677E+01 -1.4808560387E+02  2.0895487091E+02  1.2896157000E+02 0. 9.
      24    2    4    0    0    0  6.3479508680E+00  8.0707432701E+01 -2.8561806908E+02  3.0757250131E+02  8.0431188000E+01 0. 9.
      11    1    6    0    0    0  7.3369124171E+01  4.3009463942E+01 -4.2576816612E+02  4.3417896501E+02  5.1000000000E-04 0. 9.
     -12    1    6    0    0    0 -6.5353806025E+00 -1.9467399796E+01 -6.5324043654E+01  6.8475700316E+01  0.0000000000E+00 0. 9.
      -1    1    8    0    0  102  4.3219184908E+00  7.6965257976E+01 -1.2473668793E+02  1.4663451207E+02  3.3000000000E-01 0. 9.
       2    1    8    0  102    0  2.0260323771E+00  3.7421747251E+00 -1.6088138116E+02  1.6093798924E+02  3.3000000000E-01 0. 9.
</event>
<event>
    16   271  1.000000E+00  1.186999E+03  7.992984E-03  9.096619E-02
       2   -1    0    0  101    0  0.0000000000E+00  0.0000000000E+00  1.1675374430E+03  1.1675374430E+03  0.0000000000E+00 0. 9.
       2   -1    0    0  102    0  0.0000000000E+00  0.0000000000E+00 -1.2326893622E+03  1.2326893622E+03  0.0000000000E+00 0. 9.
 1000002    2    1    2  101    0 -1.7733807453E+02  6.2803996927E+02 -2.0654579999E+02  1.2048356518E+03  9.9150632100E+02 0. 9.
 1000002    2    1    2  102    0  1.7733807453E+02 -6.2803996927E+02  1.4139388085E+02  1.1953911535E+03  9.9150632100E+02 0. 9.
 1000024    2    3    0    0    0  1.5369252782E+01  3.8179730368E+02 -5.6233762990E+02  7.3116963072E+02  2.6903535800E+02 0. 9.
       1    1    3    0  101    0 -1.9270732731E+02  2.4624266559E+02  3.5579182991E+02  4.7366602104E+02  3.3000000000E-01 0. 9.
 1000024    2    4    0    0    0  2.6318422835E+02  1.4370884205E+02 -1.5627206430E+01  4.0316547815E+02  2.6903535800E+02 0. 9.
       1    1    4    0  102    0 -8.5846153824E+01 -7.7174881131E+02  1.5702108728E+02  7.9222567532E+02  3.3000000000E-01 0. 9.
 1000022    1    5    0    0    0 -3.2526257834E+01  2.6100097066E+02 -4.6629206487E+02  5.5067126348E+02  1.2896157000E+02 0. 9.
      24    2    5    0    0    0  4.7895510615E+01  1.2079633302E+02 -9.6045565035E+01  1.8049836723E+02  8.0431188000E+01 0. 9.
 1000022    1    7    0    0    0  4.2620594563E+01  4.2313811127E+01 -3.5625745087E+01  1.4665351664E+02  1.2896157000E+02 0. 9.
      24    2    7    0    0    0  2.2056363379E+02  1.0139503092E+02  1.9998538658E+01  2.5651196151E+02  8.0431188000E+01 0. 9.
      -3    1   10    0    0  103  1.7491852331E+01  1.1665810946E+02 -9.1823957810E+01  1.4948902511E+02  5.0000000000E-01 0. 9.
       4    1   10    0  103    0  3.0403658284E+01  4.1382235578E+00 -4.2216072254E+00  3.1009342122E+01  1.5000000000E+00 0. 9.
      -1    1   12    0    0  104  1.2873341065E+02  9.2701795253E+01  3.6558138007E+01  1.6279594656E+02  3.3000000000E-01 0. 9.
       2    1   12    0  104    0  9.1830223134E+01  8.6932356677E+00 -1.6559599349E+01  9.3716014949E+01  3.3000000000E-01 0. 9.
</event>
<event>
    12   226  1.000000E+00  5.363179E+02  7.920575E-03  9.976348E-02
       2   -1    0    0  101    0  0.0000000000E+00  0.0000000000E+00  1.2449436575E+03  1.2449436575E+03  0.0000000000E+00 0. 9.
      -2   -1    0    0    0  101  0.0000000000E+00  0.0000000000E+00 -3.6889575307E+02  3.6889575307E+02  0.0000000000E+00 0. 9.
 1000024    2    1    2    0    0  4.4983538911E+02  1.1360030210E+02 -5.5245735862E+01  5.3915584122E+02  2.6903535800E+02 0. 9.
-1000024    2    1    2    0    0 -4.4983538911E+02 -1.1360030210E+02  9.3129364030E+02  1.0746835694E+03  2.6903535800E+02 0. 9.
 1000022    1    3    0    0    0  3.2370992310E+02  1.9282079767E+01  1.3936868311E+01  3.4926384833E+02  1.2896157000E+02 0. 9.
      24    2    3    0    0    0  1.2612546602E+02  9.4318222334E+01 -6.9182604173E+01  1.8989199289E+02  8.0431188000E+01 0. 9.
 1000022    1    4    0    0    0 -9.5390231068E+01 -2.7982847414E+01  2.7409954452E+02  3.1881653467E+02  1.2896157000E+02 0. 9.
     -24    2    4    0    0    0 -3.5444515805E+02 -8.5617454686E+01  6.5719409578E+02  7.5586703470E+02  8.0431188000E+01 0. 9.
      -1    1    6    0    0  102  4.3832705059E+01  8.2833303495E+01 -3.8515981764E+01  1.0132251454E+02  3.3000000000E-01 0. 9.
       2    1    6    0  102    0  8.2292760956E+01  1.1484918839E+01 -3.0666622409E+01  8.8569478357E+01  3.3000000000E-01 0. 9.
       1    1    8    0  103    0 -3.4125246231E+02 -9.7805893430E+01  6.1685701905E+02  7.1171056384E+02  3.3000000000E-01 0. 9.
      -2    1    8    0    0  103 -1.3192695733E+01  1.2188438744E+01  4.0337076726E+01  4.4156470857E+01  3.3000000000E-01 0. 9.
</event>
<event>
    11   272  1.000000E+00  9.999265E+02  7.977241E-03  9.273143E-02
       1   -1    0    0  101    0  0.0000000000E+00  0.0000000000E+00  7.3706937781E+02  7.3706937781E+02  0.0000000000E+00 0. 9.
       2   -1    0    0  102    0  0.0000000000E+00  0.0000000000E+00 -1.7018781568E+03  1.7018781568E+03  0.0000000000E+00 0. 9.
 2000001    2    1    2  102    0 -8.8043178088E+01  9.4996837024E+01  6.6856668227E+01  1.0023600662E+03  9.9170554500E+02 0. 9.
 2000002    2    1    2  101    0  8.8043178088E+01 -9.4996837024E+01 -1.0316654472E+03  1.4365874684E+03  9.9129912700E+02 0. 9.
 1000021    2    3    0  102  103 -9.7187177390E+01 -3.3038587056E+01  4.6030346789E+01  8.7231958363E+02  8.6503512500E+02 0. 9.
       1    1    3    0  103    0  9.1439993017E+00  1.2803542408E+02  2.0826321438E+01  1.3004048257E+02  3.3000000000E-01 0. 9.
 1000022    1    4    0    0    0  4.7847386032E+02  1.2143369902E+02 -3.3910618908E+02  6.1262343432E+02  1.2896157000E+02 0. 9.
       2    1    4    0  101    0 -3.9043068223E+02 -2.1643053605E+02 -6.9255925817E+02  8.2396403413E+02  3.3000000000E-01 0. 9.
 1000022    1    5    0    0    0  1.8262750719E+02  4.1623488627E+01  1.7193570552E+02  2.8509348389E+02  1.2896157000E+02 0. 9.
       3    1    5    0  102    0 -9.8687980906E+01  8.3074253231E+01  1.6534576442E+02  2.0971437942E+02  5.0000000000E-01 0. 9.
      -3    1    5    0    0  103 -1.8112670367E+02 -1.5773632891E+02 -2.9125112315E+02  3.7751172032E+02  5.0000000000E-01 0. 9.
</event>
<event>
    12   226  1.000000E+00  2.905797E+02  7.865608E-03  1.078061E-01
      -2   -1    0    0    0  101  0.0000000000E+00  0.0000000000E+00  3.8312030423E+02  3.8312030423E+02  0.0000000000E+00 0. 9.
       2   -1    0    0  101    0  0.0000000000E+00  0.0000000000E+00 -2.2279463035E+02  2.2279463035E+02  0.0000000000E+00 0. 9.
-1000024    2    1    2    0    0 -9.1154647087E+01 -6.1215524278E+01  1.1162584026E+02  3.1128260820E+02  2.6903535800E+02 0. 9.
 1000024    2    1    2    0    0  9.1154647087E+01  6.1215524278E+01  4.8699833624E+01  2.9463232638E+02  2.6903535800E+02 0. 9.
 1000022    1    3    0    0    0 -1.1580018950E+02 -9.5822661405E+01  9.1287779006E+01  2.1807386698E+02  1.2896157000E+02 0. 9.
     -24    2    3    0    0    0  2.4645542410E+01  3.4607137128E+01  2.0338061250E+01  9.3208741218E+01  8.0431188000E+01 0. 9.
 1000022    1    4    0    0    0 -1.2463266031E+01  7.8655690088E+01  5.7274689875E+01  1.6202940233E+02  1.2896157000E+02 0. 9.
      24    2    4    0    0    0  1.0361791312E+02 -1.7440165811E+01 -8.5748562514E+00  1.3260292404E+02  8.0431188000E+01 0. 9.
       1    1    6    0  102    0 -5.1239252183E+00 -2.7516278086E+00 -2.6007012676E+01  2.6651447870E+01  3.3000000000E-01 0. 9.
      -2    1    6    0    0  102  2.9769467628E+01  3.7358764936E+01  4.6345073927E+01  6.6557293347E+01  3.3000000000E-01 0. 9.
      -1    1    8    0    0  103  1.3824263814E+01 -3.4303115594E+01 -1.7284189952E+01  4.0824822495E+01  3.3000000000E-01 0. 9.
       2    1    8    0  103    0  8.9793649304E+01  1.6862949783E+01  8.7093337003E+00  9.1778101550E+01  3.3000000000E-01 0. 9.
</event>
<event>
    11   237  1.000000E+00  6.656444E+02  7.940134E-03  9.720720E-02
      -2   -1    0    0    0  101  0.0000000000E+00  0.0000000000E+00  4.1719106877E+02  4.1719106877E+02  0.0000000000E+00 0. 9.
       2   -1    0    0  102    0  0.0000000000E+00  0.0000000000E+00 -9.2454733054E+02  9.2454733054E+02  0.0000000000E+00 0. 9.
 1000022    1    1    2    0    0 -1.8087831773E+02  1.6705421054E+02 -3.1850690505E+02  4.2273136882E+02  1.2896157000E+02 0. 9.
 1000021    2    1    2  102  101  1.8087831773E+02 -1.6705421054E+02 -1.8884935673E+02  9.1900703050E+02  8.6503512500E+02 0. 9.
-1000024    2    4    0    0    0 -2.7330253820E+02 -9.8460757589E+01 -2.7464292359E+00  3.9594995252E+02  2.6903535800E+02 0. 9.
       4    1    4    0  102    0  1.1889129838E+02  5.4906280797E+01 -6.1028112484E+01  1.4448709636E+02  1.5000000000E+00 0. 9.
      -3    1    4    0    0  101  3.3528955755E+02 -1.2349973375E+02 -1.2507481500E+02  3.7856998162E+02  5.0000000000E-01 0. 9.
 1000022    1    5    0    0    0 -9.7084938253E+01 -4.0389344022E+01  7.0711830020E+01  1.8079832352E+02  1.2896157000E+02 0. 9.
     -24    2    5    0    0    0 -1.7621759994E+02 -5.8071413566E+01 -7.3458259256E+01  2.1515162900E+02  8.0431188000E+01 0. 9.
       1    1    9    0  103    0 -1.1193923189E+01 -1.2282598899E+01 -3.6276565777E+01  3.9903186297E+01  3.3000000000E-01 0. 9.
      -2    1    9    0    0  103 -1.6502367676E+02 -4.5788814667E+01 -3.7181693478E+01  1.7524844270E+02  3.3000000000E-01 0. 9.
</event>
<event>
    15   273  1.000000E+00  1.144528E+03  7.989634E-03  9.133558E-02
       2   -1    0    0  101    0  0.0000000000E+00  0.0000000000E+00  2.8007581635E+03  2.8007581635E+03  0.0000000000E+00 0. 9.
       1   -1    0    0  102    0  0.0000000000E+00  0.0000000000E+00 -9.8763412674E+02  9.8763412674E+02  0.0000000000E+00 0. 9.
 1000002    2    1    2  102    0  5.3507304398E+02 -2.0089277832E+02  2.2808778211E+03  2.5518913555E+03  9.9150632100E+02 0. 9.
 2000001    2    1    2  101    0 -5.3507304398E+02  2.0089277832E+02 -4.6775378439E+02  1.2365009347E+03  9.9170554500E+02 0. 9.
 1000024    2    3    0    0    0  4.2855742441E+02 -3.0970003857E+02  5.3339729271E+02  7.9778961865E+02  2.6903535800E+02 0. 9.
       1    1    3    0  102    0  1.0651561956E+02  1.0880726025E+02  1.7474805284E+03  1.7541017369E+03  3.3000000000E-01 0. 9.
 1000021    2    4    0  101  103 -4.6569173420E+02  1.4308076292E+02 -5.3135726857E+02  1.1260405012E+03  8.6503512500E+02 0. 9.
       1    1    4    0  103    0 -6.9381309781E+01  5.7812015399E+01  6.3603484183E+01  1.1046043351E+02  3.3000000000E-01 0. 9.
 1000022    1    5    0    0    0  2.8002367297E+02 -2.5088623786E+02  4.5011134521E+02  6.0049019259E+02  1.2896157000E+02 0. 9.
      24    2    5    0    0    0  1.4853375144E+02 -5.8813800704E+01  8.3285947496E+01  1.9729942606E+02  8.0431188000E+01 0. 9.
 1000022    1    7    0    0    0  1.5844111984E+02 -1.4610874541E+02 -2.7106734575E+02  3.6954018240E+02  1.2896157000E+02 0. 9.
       3    1    7    0  101    0 -1.8472834072E+02  5.7051936077E+01 -1.5669216033E+02  2.4886174150E+02  5.0000000000E-01 0. 9.
      -3    1    7    0    0  103 -4.3940451332E+02  2.3213757225E+02 -1.0359776250E+02  5.0763857731E+02  5.0000000000E-01 0. 9.
      -3    1   10    0    0  104  3.3162843738E+01 -5.3143704764E+01  2.1080325941E+01  6.6095822126E+01  5.0000000000E-01 0. 9.
       4    1   10    0  104    0  1.1537090770E+02 -5.6700959406E+00  6.2205621555E+01  1.3120360394E+02  1.5000000000E+00 0. 9.
</event>
<event>
    17   258  1.000000E+00  1.034833E+03  7.980386E-03  9.237278E-02
      21   -1    0    0  101  102  0.0000000000E+00  0.0000000000E+00  1.2598404377E+03  1.2598404377E+03  0.0000000000E+00 0. 9.
       2   -1    0    0  102    0  0.0000000000E+00  0.0000000000E+00 -9.3831117827E+02  9.3831117827E+02  0.0000000000E+00 0. 9.
 1000021    2    1    2  101  103  1.4066358738E+01 -4.5276578107E+02  4.9432675886E+02  1.0944585086E+03  8.6503512500E+02 0. 9.
 1000002    2    1    2  103    0 -1.4066358738E+01  4.5276578107E+02 -1.7279749944E+02  1.1036931074E+03  9.9150632100E+02 0. 9.
 1000023    2    3    0    0    0 -1.4024669137E+02 -3.9195603961E+02  3.0801593313E+02  5.8350304444E+02  2.6889276000E+02 0. 9.
       3    1    3    0  101    0  2.3881900137E+02 -1.0269970869E+02 -4.2546273764E+01  2.6342395675E+02  5.0000000000E-01 0. 9.
      -3    1    3    0    0  103 -8.4505951254E+01  4.1889967235E+01  2.2885709949E+02  2.4753150737E+02  5.0000000000E-01 0. 9.
 1000023    2    4    0    0    0  2.1291067191E+02  6.0478501151E+02 -3.4967433742E+02  7.7824888242E+02  2.6889276000E+02 0. 9.
       2    1    4    0  103    0 -2.2697703065E+02 -1.5201923044E+02  1.7687683798E+02  3.2544422499E+02  3.3000000000E-01 0. 9.
 1000022    1    5    0    0    0 -1.4405131687E+02 -3.3313213398E+02  2.6041497395E+02  4.6494606760E+02  1.2896157000E+02 0. 9.
      23    2    5    0    0    0  3.8046254972E+00 -5.8823905629E+01  4.7600959182E+01  1.1855697684E+02  9.1187600000E+01 0. 9.
 1000022    1    8    0    0    0  1.3862701304E+02  3.2367525341E+02 -2.2521333750E+02  4.3741885229E+02  1.2896157000E+02 0. 9.
      25    2    8    0    0    0  7.4283658873E+01  2.8110975810E+02 -1.2446099993E+02  3.4083003013E+02  1.2701893900E+02 0. 9.
      14    1   11    0    0    0 -2.9174563783E+01 -2.8740221720E+01  5.9617762398E+01  7.2328646537E+01  0.0000000000E+00 0. 9.
     -14    1   11    0    0    0  3.2979189280E+01 -3.0083683909E+01 -1.2016803216E+01  4.6228330303E+01  0.0000000000E+00 0. 9.
       5    1   13    0  104    0  8.0738784774E+01  1.8252074897E+02 -2.6107766374E+01  2.0133859699E+02  4.8000000000E+00 0. 9.
      -5    1   13    0    0  104 -6.4551259013E+00  9.8589009129E+01 -9.8353233552E+01  1.3949143315E+02  4.8000000000E+00 0. 9.
</event>
<event>
    12   226  1.000000E+00  6.641533E+02  7.939930E-03  9.723306E-02
      -2   -1    0    0    0  101  0.0000000000E+00  0.0000000000E+00  3.4230465017E+02  3.4230465017E+02  0.0000000000E+00 0. 9.
       2   -1    0    0  101    0  0.0000000000E+00  0.0000000000E+00 -1.4989167515E+03  1.4989167515E+03  0.0000000000E+00 0. 9.
-1000024    2    1    2    0    0 -6.0331309630E+02 -6.8796076755E+01 -9.2313726144E+02  1.1372255799E+03  2.6903535800E+02 0. 9.
 1000024    2    1    2    0    0  6.0331309630E+02  6.8796076755E+01 -2.3347483993E+02  7.0399582177E+02  2.6903535800E+02 0. 9.
 1000022    1    3    0    0    0 -2.3160871275E+02 -4.0843774296E+01 -2.6784612969E+02  3.7905599250E+02  1.2896157000E+02 0. 9.
     -24    2    3    0    0    0 -3.7170438355E+02 -2.7952302459E+01 -6.5529113175E+02  7.5816958744E+02  8.0431188000E+01 0. 9.
 1000022    1    4    0    0    0  3.6821719660E+02  3.8700534398E+01 -2.2822454659E+02  4.5365092906E+02  1.2896157000E+02 0. 9.
      24    2    4    0    0    0  2.3509589970E+02  3.0095542357E+01 -5.2502933385E+00  2.5034489271E+02  8.0431188000E+01 0. 9.
      15    1    6    0    0    0 -3.0064165392E+01 -1.8581706825E+01 -3.3971020938E+01  4.9054274654E+01  1.7770000000E+00 0. 9.
     -16    1    6    0    0    0 -3.4164021816E+02 -9.3705956340E+00 -6.2132011081E+02  7.0911531279E+02  0.0000000000E+00 0. 9.
      -3    1    8    0    0  102  7.4802388883E+01  2.3086110621E+01 -3.7306754770E+01  8.6720296573E+01  5.0000000000E-01 0. 9.
       4    1    8    0  102    0  1.6029351082E+02  7.0094317362E+00  3.2056461432E+01  1.6362459614E+02  1.5000000000E+00 0. 9.
</event>
<event>
    12   226  1.000000E+00  3.425569E+02  7.880292E-03  1.055218E-01
       1   -1    0    0  101    0  0.0000000000E+00  0.0000000000E+00  8.9691626002E+02  8.9691626002E+02  0.0000000000E+00 0. 9.
      -1   -1    0    0    0  101  0.0000000000E+00  0.0000000000E+00 -5.4653222478E+02  5.4653222478E+02  0.0000000000E+00 0. 9.
-1000024    2    1    2    0    0  2.0827588842E+02  3.9829121730E+01  8.0463095584E+02  8.7451483897E+02  2.6903535800E+02 0. 9.
 1000024    2    1    2    0    0 -2.0827588842E+02 -3.9829121730E+01 -4.5424692059E+02  5.6893364583E+02  2.6903535800E+02 0. 9.
 1000022    1    3    0    0    0  2.5437622285E+01 -2.2110274585E+01  3.0137677620E+02  3.2953753146E+02  1.2896157000E+02 0. 9.
     -24    2    3    0    0    0  1.8283826613E+02  6.1939396315E+01  5.0325417963E+02  5.4497730751E+02  8.0431188000E+01 0. 9.
 1000022    1    4    0    0    0 -1.4406627621E+02 -1.0059539703E+02 -3.3817727064E+02  4.0233006196E+02  1.2896157000E+02 0. 9.
      24    2    4    0    0    0 -6.4209612214E+01  6.0766275301E+01 -1.1606964996E+02  1.6660358387E+02  8.0431188000E+01 0. 9.
       1    1    6    0  102    0  1.2586946407E+01  3.3088777468E+01  1.0783815779E+02  1.1350099378E+02  3.3000000000E-01 0. 9.
      -2    1    6    0    0  102  1.7025131973E+02  2.8850618847E+01  3.9541602185E+02  4.3147631373E+02  3.3000000000E-01 0. 9.
     -15    1    8    0    0    0  4.7280579454E+00 -1.0954898998E+01 -3.8822122836E+01  4.0653158481E+01  1.7770000000E+00 0. 9.
      16    1    8    0    0    0 -6.8937670159E+01  7.1721174299E+01 -7.7247527123E+01  1.2595042539E+02  0.0000000000E+00 0. 9.
</event>
<event>
    12   230  1.000000E+00  2.706011E+02  7.859269E-03  1.088258E-01
       2   -1    0    0  101    0  0.0000000000E+00  0.0000000000E+00  8.6756492498E+01  8.6756492498E+01  0.0000000000E+00 0. 9.
      -1   -1    0    0    0  101  0.0000000000E+00  0.0000000000E+00 -8.5608480763E+02  8.5608480763E+02  0.0000000000E+00 0. 9.
 1000024    2    1    2    0    0 -2.3214927820E+01 -1.8556877282E+01 -4.4070788101E+02  5.1719121300E+02  2.6903535800E+02 0. 9.
 1000023    2    1    2    0    0  2.3214927820E+01  1.8556877282E+01 -3.2862043413E+02  4.2565008713E+02  2.6889276000E+02 0. 9.
 1000022    1    3    0    0    0  6.6087847861E+00 -4.8655545903E+01 -1.1686511642E+02  1.8083025232E+02  1.2896157000E+02 0. 9.
      24    2    3    0    0    0 -2.9823712606E+01  3.0098668620E+01 -3.2384276459E+02  3.3636096068E+02  8.0431188000E+01 0. 9.
 1000022    1    4    0    0    0 -5.9068925419E+01 -1.4367915155E+01 -1.8994970280E+02  2.3750273907E+02  1.2896157000E+02 0. 9.
      23    2    4    0    0    0  8.2283853239E+01  3.2924792437E+01 -1.3867073133E+02  1.8814734806E+02  9.1187600000E+01 0. 9.
      -1    1    6    0    0  102  1.2114348849E+01 -1.3713660402E+01 -2.2636193758E+01  2.9108900658E+01  3.3000000000E-01 0. 9.
       2    1    6    0  102    0 -4.1938061456E+01  4.3812329022E+01 -3.0120657083E+02  3.0725206002E+02  3.3000000000E-01 0. 9.
      16    1    8    0    0    0  8.9877049520E+01  2.5136966169E+01 -1.4722283535E+02  1.7431097024E+02  0.0000000000E+00 0. 9.
     -16    1    8    0    0    0 -7.5931962805E+00  7.7878262680E+00  8.5521040255E+00  1.3836377814E+01  0.0000000000E+00 0. 9.
</event>
<event>
    25   258  1.000000E+00  9.585427E+02  7.973370E-03  9.317706E-02
       2   -1    0    0  101    0  0.0000000000E+00  0.0000000000E+00  1.0433203619E+03  1.0433203619E+03  0.0000000000E+00 0. 9.
      21   -1    0    0  102  101  0.0000000000E+00  0.0000000000E+00 -1.2707868682E+03  1.2707868682E+03  0.0000000000E+00 0. 9.
 1000002    2    1    2  103    0  8.6917638683E+00  2.3031140817E+02  5.2437130420E+02  1.1450628545E+03  9.9150632100E+02 0. 9.
 1000021    2    1    2  102  103 -8.6917638683E+00 -2.3031140817E+02 -7.5183781049E+02  1.1690443757E+03  8.6503512500E+02 0. 9.
 1000023    2    3    0    0    0  2.2006845034E+02 -1.4030451228E+02 -1.0092135157E+02  3.8807720184E+02  2.6889276000E+02 0. 9.
       2    1    3    0  103    0 -2.1137668648E+02  3.7061592045E+02  6.2529265577E+02  7.5698565266E+02  3.3000000000E-01 0. 9.
 1000023    2    4    0    0    0  2.1358921372E+02  6.7031506051E+01 -2.1966441003E+02  4.1312146451E+02  2.6889276000E+02 0. 9.
       6    2    4    0  102    0 -1.0624376379E+02 -1.7897086520E+02 -3.9746058341E+02  4.8092771109E+02  1.7320000000E+02 0. 9.
      -6    2    4    0    0  103 -1.1603721380E+02 -1.1837204902E+02 -1.3471281705E+02  2.7499520006E+02  1.7320000000E+02 0. 9.
 1000022    1    5    0    0    0  8.7716007062E+01 -1.4596288942E+02 -5.0029284950E+01  2.1939297817E+02  1.2896157000E+02 0. 9.
      23    2    5    0    0    0  1.3235244328E+02  5.6583771398E+00 -5.0892066619E+01  1.6868422366E+02  9.1187600000E+01 0. 9.
 1000022    1    7    0    0    0  1.4319070676E+02  5.1968530731E+01 -1.5831773770E+02  2.5475458641E+02  1.2896157000E+02 0. 9.
      25    2    7    0    0    0  7.0398506963E+01  1.5062975320E+01 -6.1346672332E+01  1.5836687810E+02  1.2701893900E+02 0. 9.
      24    2    8    0    0    0 -4.8184452686E+01 -1.8951397170E+02 -3.1651261554E+02  3.8063985438E+02  8.0431188000E+01 0. 9.
       5    1    8    0  102    0 -5.8059311102E+01  1.0543106502E+01 -8.0947967873E+01  1.0028785671E+02  4.8000000000E+00 0. 9.
     -24    2    9    0    0    0 -1.0866403062E+02 -7.6205992432E+01 -2.5081100366E+01  1.5720516032E+02  8.0431188000E+01 0. 9.
      -5    1    9    0    0  103 -7.3731831861E+00 -4.2166056592E+01 -1.0963171668E+02  1.1779003974E+02  4.8000000000E+00 0. 9.
      12    1   11    0    0    0  9.6239987499E+01  1.8096174823E+00  1.1041349812E+01  9.6888189760E+01  0.0000000000E+00 0. 9.
     -12    1   11    0    0    0  3.6112455783E+01  3.8487596575E+00 -6.1933416431E+01  7.1796033905E+01  0.0000000000E+00 0. 9.
       5    1   13    0  104    0  7.4749351227E+01  6.2783736106E+01 -4.3943543279E+01  1.0716033793E+02  4.8000000000E+00 0. 9.
      -5    1   13    0    0  104 -4.3508442647E+00 -4.7720760786E+01 -1.7403129052E+01  5.1206540174E+01  4.8000000000E+00 0. 9.
      -3    1   14    0    0  105 -1.9170841739E+00 -1.2138966705E+02 -1.3649832343E+02  1.8267777308E+02  5.0000000000E-01 0. 9.
       4    1   14    0  105    0 -4.6267368512E+01 -6.8124304651E+01 -1.8001429210E+02  1.9796208130E+02  1.5000000000E+00 0. 9.
       1    1   16    0  106    0 -4.0495373345E+01 -7.6999364805E+01 -1.2870726635E+01  8.7946244643E+01  3.3000000000E-01 0. 9.
      -2    1   16    0    0  106 -6.8168657273E+01  7.9337237315E-01 -1.2210373731E+01  6.9258915677E+01  3.3000000000E-01 0. 9.
</event>
<event>
    19   273  1.000000E+00  1.068334E+03  7.983308E-03  9.204226E-02
       2   -1    0    0  101    0  0.0000000000E+00  0.0000000000E+00  1.6665578914E+03  1.6665578914E+03  0.0000000000E+00 0. 9.
       2   -1    0    0  102    0  0.0000000000E+00  0.0000000000E+00 -1.2750135407E+03  1.2750135407E+03  0.0000000000E+00 0. 9.
 2000002    2    1    2  102    0 -3.7177049405E+02 -1.4228678183E+02  1.1964055037E+03  1.6039073904E+03  9.9129912700E+02 0. 9.
 1000002    2    1    2  101    0  3.7177049405E+02  1.4228678183E+02 -8.0486115298E+02  1.3376640418E+03  9.9150632100E+02 0. 9.
 1000021    2    3    0  102  103 -3.2026295850E+02 -2.4376085612E+02  1.0557949729E+03  1.4230166935E+03  8.6503512500E+02 0. 9.
       2    1    3    0  103    0 -5.1507535542E+01  1.0147407430E+02  1.4061053076E+02  1.8089069692E+02  3.3000000000E-01 0. 9.
 1000024    2    4    0    0    0  5.8812665944E+01 -3.5657432723E+02 -1.9828411656E+02  4.9224058676E+02  2.6903535800E+02 0. 9.
       1    1    4    0  101    0  3.1295782810E+02  4.9886110906E+02 -6.0657703642E+02  8.4542345503E+02  3.3000000000E-01 0. 9.
 1000024    2    5    0    0    0  5.1566605473E+01 -1.7875657437E+02  2.4930485052E+02  4.1127358294E+02  2.6903535800E+02 0. 9.
      -4    1    5    0    0  103 -4.3254834588E+02  9.2203344233E+01  5.9223380536E+02  7.3914995665E+02  1.5000000000E+00 0. 9.
       3    1    5    0  102    0  6.0718781908E+01 -1.5720762599E+02  2.1425631704E+02  2.7259315387E+02  5.0000000000E-01 0. 9.
 1000022    1    7    0    0    0 -3.2149947097E+01 -1.9821049013E+02 -1.6449119320E+02  2.8984384877E+02  1.2896157000E+02 0. 9.
      24    2    7    0    0    0  9.0962613042E+01 -1.5836383711E+02 -3.3792923363E+01  2.0239673799E+02  8.0431188000E+01 0. 9.
 1000022    1    9    0    0    0 -1.7077166767E+01 -1.7318632049E+02  1.3388138352E+02  2.5463786564E+02  1.2896157000E+02 0. 9.
      24    2    9    0    0    0  6.8643772240E+01 -5.5702538740E+00  1.1542346700E+02  1.5663571730E+02  8.0431188000E+01 0. 9.
     -13    1   13    0    0    0  6.8813959154E+00 -8.8222684854E+01 -2.7725623786E+01  9.2732502991E+01  1.0566000000E-01 0. 9.
      14    1   13    0    0    0  8.4081217126E+01 -7.0141152254E+01 -6.0672995778E+00  1.0966423500E+02  0.0000000000E+00 0. 9.
      -1    1   15    0    0  104  7.1865555671E+01 -3.2036360162E+01  9.2803010607E+01  1.2166961059E+02  3.3000000000E-01 0. 9.
       2    1   15    0  104    0 -3.2217834309E+00  2.6466106288E+01  2.2620456395E+01  3.4966106704E+01  3.3000000000E-01 0. 9.
</event>
<event>
    22   272  1.000000E+00  1.171718E+03  7.991792E-03  9.109721E-02
       1   -1    0    0  101    0  0.0000000000E+00  0.0000000000E+00  9.9864589844E+02  9.9864589844E+02  0.0000000000E+00 0. 9.
       2   -1    0    0  102    0  0.0000000000E+00  0.0000000000E+00 -1.6514553927E+03  1.6514553927E+03  0.0000000000E+00 0. 9.
 2000001    2    1    2  102    0  4.4540060952E+02  4.3756767403E+02  2.1590565961E+02  1.1916133241E+03  9.9170554500E+02 0. 9.
 2000002    2    1    2  101    0 -4.4540060952E+02 -4.3756767403E+02 -8.6871515391E+02  1.4584879671E+03  9.9129912700E+02 0. 9.
 1000021    2    3    0  102  103  4.2017460146E+02  4.0840932671E+02  7.7212621804E+01  1.0476604556E+03  8.6503512500E+02 0. 9.
       1    1    3    0  103    0  2.5226008059E+01  2.9158347323E+01  1.3869303780E+02  1.4395286845E+02  3.3000000000E-01 0. 9.
 1000021    2    4    0  101  104 -3.9265006863E+02 -5.0297151751E+02 -7.4086094611E+02  1.3054942102E+03  8.6503512500E+02 0. 9.
       2    1    4    0  104    0 -5.2750540896E+01  6.5403843475E+01 -1.2785420780E+02  1.5299375693E+02  3.3000000000E-01 0. 9.
-1000024    2    5    0    0    0  3.7092804150E+02  5.3776561272E+02 -1.2132935218E+02  7.1685444948E+02  2.6903535800E+02 0. 9.
       6    2    5    0  102    0  1.1206938122E+01 -7.3488877573E+01  1.7984272237E+02  2.6051459724E+02  1.7320000000E+02 0. 9.
      -5    1    5    0    0  103  3.8039621847E+01 -5.5867408435E+01  1.8699251621E+01  7.0291408911E+01  4.8000000000E+00 0. 9.
 1000022    1    7    0    0    0 -2.7097325821E+02 -1.2206067602E+02 -7.9787053296E+02  8.6113517475E+02  1.2896157000E+02 0. 9.
       3    1    7    0  101    0 -7.4600541097E+01 -3.7834122729E+02  2.3166847543E+01  3.8632146953E+02  5.0000000000E-01 0. 9.
      -3    1    7    0    0  104 -4.7076269320E+01 -2.5696141978E+00  3.3842739301E+01  5.8037565882E+01  5.0000000000E-01 0. 9.
 1000022    1    9    0    0    0  2.7753657728E+02  2.8551106099E+02 -2.2249281892E+01  4.1912913852E+02  1.2896157000E+02 0. 9.
     -24    2    9    0    0    0  9.3391464215E+01  2.5225455173E+02 -9.9080070291E+01  2.9772531096E+02  8.0431188000E+01 0. 9.
      24    2   10    0    0    0  6.5018774288E+01 -2.1331662290E+01  1.4043315178E+02  1.7570750396E+02  8.0431188000E+01 0. 9.
       5    1   10    0  102    0 -5.3811836166E+01 -5.2157215283E+01  3.9409570590E+01  8.4807093287E+01  4.8000000000E+00 0. 9.
       1    1   16    0  105    0  2.9072960846E+01  1.8657592417E+02 -6.6640410525E+01  2.0024201794E+02  3.3000000000E-01 0. 9.
      -2    1   16    0    0  105  6.4318503369E+01  6.5678627558E+01 -3.2439659766E+01  9.7483293026E+01  3.3000000000E-01 0. 9.
     -11    1   17    0    0    0  4.4891483488E+01 -4.5617190358E+01  1.2535217144E+02  1.4074565795E+02  5.1000000000E-04 0. 9.
      12    1   17    0    0    0  2.0127290800E+01  2.4285528068E+01  1.5080980334E+01  3.4961846008E+01  0.0000000000E+00 0. 9.
</event>
<event>
    12   230  1.000000E+00  2.813027E+02  7.862719E-03  1.082682E-01
      -1   -1    0    0    0  101  0.0000000000E+00  0.0000000000E+00  2.5044647460E+02  2.5044647460E+02  0.0000000000E+00 0. 9.
       2   -1    0    0  101    0  0.0000000000E+00  0.0000000000E+00 -3.5058260644E+02  3.5058260644E+02  0.0000000000E+00 0. 9.
 1000023    2    1    2    0    0 -8.2201748834E+01 -5.6946532482E+00 -1.4449503040E+02  3.1618299571E+02  2.6889276000E+02 0. 9.
 1000024    2    1    2    0    0  8.2201748834E+01  5.6946532482E+00  4.4358898560E+01  2.8484608532E+02  2.6903535800E+02 0. 9.
 1000022    1    3    0    0    0 -7.3644026257E+01  2.4195276580E+01 -7.7443340601E+01  1.6922591868E+02  1.2896157000E+02 0. 9.
      25    2    3    0    0    0 -8.5577225767E+00 -2.9889929829E+01 -6.7051689799E+01  1.4695707703E+02  1.2701893900E+02 0. 9.
 1000022    1    4    0    0    0  4.4983170530E+01 -3.3654631321E+01  1.0042507943E+02  1.7283634732E+02  1.2896157000E+02 0. 9.
      24    2    4    0    0    0  3.7218578304E+01  3.9349284569E+01 -5.6066180866E+01  1.1200973800E+02  8.0431188000E+01 0. 9.
       5    1    6    0  102    0  5.3457059753E+01  8.6496593866E+00 -4.4889307494E+01  7.0502225300E+01  4.8000000000E+00 0. 9.
      -5    1    6    0    0  102 -6.2014782330E+01 -3.8539589215E+01 -2.2162382305E+01  7.6454851734E+01  4.8000000000E+00 0. 9.
      -3    1    8    0    0  103  1.1807440585E+00  3.7109999321E+01 -6.4932137750E+01  7.4799590366E+01  5.0000000000E-01 0. 9.
       4    1    8    0  103    0  3.6037834246E+01  2.2392852476E+00  8.8659568841E+00  3.7210147635E+01  1.5000000000E+00 0. 9.
</event>
<event>
    16   259  1.000000E+00  1.012319E+03  7.978369E-03  9.260237E-02
      -1   -1    0    0    0  101  0.0000000000E+00  0.0000000000E+00  1.5308712099E+03  1.5308712099E+03  0.0000000000E+00 0. 9.
      21   -1    0    0  101  102  0.0000000000E+00  0.0000000000E+00 -7.5737925802E+02  7.5737925802E+02  0.0000000000E+00 0. 9.
-2000001    2    1    2    0  103 -2.3861376711E+02  3.1932838000E+02  1.2153072325E+01  1.0688941619E+03  9.9170554500E+02 0. 9.
 1000021    2    1    2  103  102  2.3861376711E+02 -3.1932838000E+02  7.6133887956E+02  1.2193563061E+03  8.6503512500E+02 0. 9.
 1000021    2    3    0  104  103 -1.4246668897E+02  2.0400354578E+02  8.0934652794E+01  9.0374243547E+02  8.6503512500E+02 0. 9.
      -1    1    3    0    0  104 -9.6147078138E+01  1.1532483422E+02 -6.8781580470E+01  1.6515172640E+02  3.3000000000E-01 0. 9.
-1000024    2    4    0    0    0  3.3061047242E+01 -1.7876486464E+02  1.8485250086E+02  3.7363134318E+02  2.6903535800E+02 0. 9.
       2    1    4    0  103    0  1.1999297990E+02 -5.2893545143E+01 -9.5780144444E+01  1.6238838416E+02  3.3000000000E-01 0. 9.
      -1    1    4    0    0  102  8.5559739970E+01 -8.7669970210E+01  6.7226652314E+02  6.8333657872E+02  3.3000000000E-01 0. 9.
 1000022    1    5    0    0    0 -1.8166487733E+02 -3.9155768948E+01 -1.0945228183E+02  2.5128905752E+02  1.2896157000E+02 0. 9.
       1    1    5    0  104    0 -2.3827534753E+02 -2.3081457230E+01  7.9296119923E+01  2.5218223261E+02  3.3000000000E-01 0. 9.
      -1    1    5    0    0  103  2.7747353589E+02  2.6624077196E+02  1.1109081470E+02  4.0027114533E+02  3.3000000000E-01 0. 9.
 1000022    1    7    0    0    0 -3.1616681801E+00 -3.2920493154E+01  1.6660963436E+01  1.3417313164E+02  1.2896157000E+02 0. 9.
     -24    2    7    0    0    0  3.6222715423E+01 -1.4584437149E+02  1.6819153742E+02  2.3945821153E+02  8.0431188000E+01 0. 9.
       1    1   14    0  105    0  3.1846043691E+01 -8.8336989613E+01  4.6487024940E+01  1.0477951432E+02  3.3000000000E-01 0. 9.
      -2    1   14    0    0  105  4.3766717313E+00 -5.7507381876E+01  1.2170451248E+02  1.3467869722E+02  3.3000000000E-01 0. 9.
</event>
<event>
    12   226  1.000000E+00  2.770653E+02  7.861369E-03  1.084857E-01
      -2   -1    0    0    0  101  0.0000000000E+00  0.0000000000E+00  5.1787003838E+01  5.1787003838E+01  0.0000000000E+00 0. 9.
       2   -1    0    0  101    0  0.0000000000E+00  0.0000000000E+00 -1.6732698948E+03  1.6732698948E+03  0.0000000000E+00 0. 9.
-1000024    2    1    2    0    0  3.2115364906E+01 -5.7911556529E+01 -5.1937167625E+02  5.8865278984E+02  2.6903535800E+02 0. 9.
 1000024    2    1    2    0    0 -3.2115364906E+01  5.7911556529E+01 -1.1021112147E+03  1.1364041088E+03  2.6903535800E+02 0. 9.
 1000022    1    3    0    0    0  9.2861146455E+01 -6.5295567561E+01 -3.7431938016E+02  4.1186501256E+02  1.2896157000E+02 0. 9.
     -24    2    3    0    0    0 -6.0745781548E+01  7.3840110314E+00 -1.4505229609E+02  1.7678777729E+02  8.0431188000E+01 0. 9.
 1000022    1    4    0    0    0 -1.5335305372E+01 -1.8893240067E+01 -8.5356108667E+02  8.6359118877E+02  1.2896157000E+02 0. 9.
      24    2    4    0    0    0 -1.6780059534E+01  7.6804796597E+01 -2.4855012800E+02  2.7281291998E+02  8.0431188000E+01 0. 9.
       3    1    6    0  102    0 -7.7028560598E+00  3.8689989466E+01 -5.6609478499E+01  6.9000958923E+01  5.0000000000E-01 0. 9.
      -4    1    6    0    0  102 -5.3042925488E+01 -3.1305978435E+01 -8.8442817591E+01  1.0778681837E+02  1.5000000000E+00 0. 9.
      -3    1    8    0    0  103 -5.0419088912E-01  7.5221381710E+01 -1.0981510231E+02  1.3310941803E+02  5.0000000000E-01 0. 9.
       4    1    8    0  103    0 -1.6275868645E+01  1.5834148866E+00 -1.3873502569E+02  1.3970350195E+02  1.5000000000E+00 0. 9.
</event>
<event>
    12   226  1.000000E+00  4.121031E+02  7.896852E-03  1.030689E-01
       2   -1    0    0  101    0  0.0000000000E+00  0.0000000000E+00  5.5472529757E+02  5.5472529757E+02  0.0000000000E+00 0. 9.
      -2   -1    0    0    0  101  0.0000000000E+00  0.0000000000E+00 -3.2399595501E+02  3.2399595501E+02  0.0000000000E+00 0. 9.
 1000024    2    1    2    0    0  3.3240556559E+01  3.1039330786E+02  2.1848049456E+02  4.6643615911E+02  2.6903535800E+02 0. 9.
-1000024    2    1    2    0    0 -3.3240556559E+01 -3.1039330786E+02  1.2248848003E+01  4.1228509347E+02  2.6903535800E+02 0. 9.
 1000022    1    3    0    0    0  8.5324344004E+01  2.6325929179E+02  1.6129081364E+02  3.4529916231E+02  1.2896157000E+02 0. 9.
      24    2    3    0    0    0 -5.2083787444E+01  4.7134016075E+01  5.7189680918E+01  1.2113699679E+02  8.0431188000E+01 0. 9.
 1000022    1    4    0    0    0  3.0315639152E+01 -2.6539477980E+02 -1.5218528236E+01  2.9701198168E+02  1.2896157000E+02 0. 9.
     -24    2    4    0    0    0 -6.3556195711E+01 -4.4998528058E+01  2.7467376239E+01  1.1527311179E+02  8.0431188000E+01 0. 9.
      -3    1    6    0    0  102 -5.4588817350E+01  2.6260800443E+01  7.2947072774E+01  9.4821379687E+01  5.0000000000E-01 0. 9.
       4    1    6    0  102    0  2.5050299054E+00  2.0873215632E+01 -1.5757391856E+01  2.6315617108E+01  1.5000000000E+00 0. 9.
       1    1    8    0  103    0 -2.5061856115E+01  3.4801177135E+00 -2.3919162339E+01  3.4820153335E+01  3.3000000000E-01 0. 9.
      -2    1    8    0    0  103 -3.8494339597E+01 -4.8478645772E+01  5.1386538578E+01  8.0452958453E+01  3.3000000000E-01 0. 9.
</event>
<event>
    12   230  1.000000E+00  3.144810E+02  7.872655E-03  1.066966E-01
       1   -1    0    0  101    0  0.0000000000E+00  0.0000000000E+00  5.9809497595E+02  5.9809497595E+02  0.0000000000E+00 0. 9.
      -2   -1    0    0    0  101  0.0000000000E+00  0.0000000000E+00 -1.6842295755E+02  1.6842295755E+02  0.0000000000E+00 0. 9.
 1000023    2    1    2    0    0  4.5175483453E+01  1.5657520994E+02  1.6307234337E+02  3.5419278116E+02  2.6889276000E+02 0. 9.
-1000024    2    1    2    0    0 -4.5175483453E+01 -1.5657520994E+02  2.6659967502E+02  4.1232515234E+02  2.6903535800E+02 0. 9.
 1000022    1    3    0    0    0  4.8033551290E+01  5.6767312270E+01  5.0187801196E+01  1.5709758661E+02  1.2896157000E+02 0. 9.
      25    2    3    0    0    0 -2.8580678377E+00  9.9807897670E+01  1.1288454218E+02  1.9709519455E+02  1.2701893900E+02 0. 9.
 1000022    1    4    0    0    0 -1.6766220841E+01 -1.1944348196E+02  6.1271601338E+01  1.8690411235E+02  1.2896157000E+02 0. 9.
     -24    2    4    0    0    0 -2.8409262612E+01 -3.7131727979E+01  2.0532807368E+02  2.2542103999E+02  8.0431188000E+01 0. 9.
       5    1    6    0  102    0  3.5421102044E+01  1.1472322045E+02  8.5910911228E+01  1.4771525463E+02  4.8000000000E+00 0. 9.
      -5    1    6    0    0  102 -3.8279169881E+01 -1.4915322785E+01  2.6973630951E+01  4.9379939928E+01  4.8000000000E+00 0. 9.
      13    1    8    0    0    0 -8.1182281839E+00  2.5727718374E+01  5.9954988941E+01  6.5745212636E+01  1.0566000000E-01 0. 9.
     -14    1    8    0    0    0 -2.0291034428E+01 -6.2859446353E+01  1.4537308474E+02  1.5967582735E+02  0.0000000000E+00 0. 9.
</event>
<event>
    28   258  1.000000E+00  9.758369E+02  7.975007E-03  9.298801E-02
       1   -1    0    0  101    0  0.0000000000E+00  0.0000000000E+00  1.6352520032E+03  1.6352520032E+03  0.0000000000E+00 0. 9.
      21   -1    0    0  102  101  0.0000000000E+00  0.0000000000E+00 -6.6075097684E+02  6.6075097684E+02  0.0000000000E+00 0. 9.
 1000001    2    1    2  103    0 -1.7658474991E+02  2.2934089166E+02  1.1373809851E+02  1.0418187815E+03  9.9431916400E+02 0. 9.
 1000021    2    1    2  102  103  1.7658474991E+02 -2.2934089166E+02  8.6076292787E+02  1.2541841986E+03  8.6503512500E+02 0. 9.
 1000021    2    3    0  103  104 -1.4123955131E+02  2.4989174915E+02  2.1168838492E+02  9.3567742141E+02  8.6503512500E+02 0. 9.
       1    1    3    0  104    0 -3.5345198602E+01 -2.0550857487E+01 -9.7950286415E+01  1.0614136006E+02  3.3000000000E-01 0. 9.
-1000024    2    4    0    0    0  1.5554324258E+02 -3.4316068308E+02  4.2102109471E+02  6.2577291470E+02  2.6903535800E+02 0. 9.
       6    2    4    0  102    0  6.5254919744E+01  1.8638420734E+02  1.0476532936E+02  2.8279195804E+02  1.7320000000E+02 0. 9.
      -5    1    4    0    0  103 -4.4213412415E+01 -7.2564415913E+01  3.3497650380E+02  3.4561932584E+02  4.8000000000E+00 0. 9.
 1000024    2    5    0    0    0 -1.6852052522E+02  3.3701477018E+02 -1.2436212931E+01  4.6315527201E+02  2.6903535800E+02 0. 9.
      -6    2    5    0    0  104  7.6368892102E+01 -2.0576434082E+02  1.9472672334E+02  3.4071675688E+02  1.7320000000E+02 0. 9.
       5    1    5    0  103    0 -4.9087918196E+01  1.1864131979E+02  2.9397874512E+01  1.3180539253E+02  4.8000000000E+00 0. 9.
 1000022    1    7    0    0    0  1.5657890467E+02 -3.2064935468E+02  3.4376350407E+02  5.1199355006E+02  1.2896157000E+02 0. 9.
     -24    2    7    0    0    0 -1.0356620805E+00 -2.2511328410E+01  7.7257590647E+01  1.1377936464E+02  8.0431188000E+01 0. 9.
      24    2    8    0    0    0 -3.0247823379E+01  1.1304053610E+02  6.1646259100E+01  1.5479835556E+02  8.0431188000E+01 0. 9.
       5    1    8    0  102    0  9.5502743123E+01  7.3343671239E+01  4.3119070257E+01  1.2799360248E+02  4.8000000000E+00 0. 9.
 1000022    1   10    0    0    0 -1.3606214843E+02  2.2146107362E+02 -8.3795182387E+01  3.0201098406E+02  1.2896157000E+02 0. 9.
      24    2   10    0    0    0 -3.2458376789E+01  1.1555369656E+02  7.1358969456E+01  1.6114428794E+02  8.0431188000E+01 0. 9.
     -24    2   11    0    0    0  5.4358069513E+01 -2.2538479029E+02  1.9024440334E+02  3.1050799092E+02  8.0431188000E+01 0. 9.
      -5    1   11    0    0  104  2.2010822590E+01  1.9620449470E+01  4.4823200004E+00  3.0208765964E+01  4.8000000000E+00 0. 9.
       3    1   14    0  105    0 -1.8491680526E+01 -3.0752032219E+01  1.8596922923E+00  3.5935194305E+01  5.0000000000E-01 0. 9.
      -4    1   14    0    0  105  1.7456018445E+01  8.2407038098E+00  7.5397898354E+01  7.7844170337E+01  1.5000000000E+00 0. 9.
      -3    1   15    0    0  106  2.4018617081E+01  6.4031406663E+01  2.3525360507E+01  7.2322939603E+01  5.0000000000E-01 0. 9.
       4    1   15    0  106    0 -5.4266440460E+01  4.9009129437E+01  3.8120898593E+01  8.2475415961E+01  1.5000000000E+00 0. 9.
      -1    1   18    0    0  107  1.9280836345E+01  5.7644908686E+01  5.4586418173E+01  8.1697442412E+01  3.3000000000E-01 0. 9.
       2    1   18    0  107    0 -5.1739213134E+01  5.7908787871E+01  1.6772551283E+01  7.9446845532E+01  3.3000000000E-01 0. 9.
      13    1   19    0    0    0  7.1785574039E+01 -1.5319063115E+02  1.1356524656E+02  2.0375871639E+02  1.0566000000E-01 0. 9.
     -14    1   19    0    0    0 -1.7427504526E+01 -7.2194159142E+01  7.6679156777E+01  1.0674927453E+02  0.0000000000E+00 0. 9.
</event>
<event>
    14   243  1.000000E+00  1.011809E+03  7.978323E-03  9.260765E-02
       2   -1    0    0  101    0  0.0000000000E+00  0.0000000000E+00  1.0841142779E+03  1.0841142779E+03  0.0000000000E+00 0. 9.
      -2   -1    0    0    0  102  0.0000000000E+00  0.0000000000E+00 -1.0447173189E+03  1.0447173189E+03  0.0000000000E+00 0. 9.
 1000021    2    1    2  101  103 -1.9630504968E+02  4.8675989021E+02 -3.1026154648E+02  1.0583094339E+03  8.6503512500E+02 0. 9.
 1000021    2    1    2  103  102  1.9630504968E+02 -4.8675989021E+02  3.4965850554E+02  1.0705221629E+03  8.6503512500E+02 0. 9.
 1000022    1    3    0    0    0 -2.5303198841E+02  2.4354097272E+02 -3.8473493812E+02  5.3664648671E+02  1.2896157000E+02 0. 9.
       3    1    3    0  101    0 -1.6452507370E+02  1.5812556300E+02 -7.6432149353E+01  2.4065393619E+02  5.0000000000E-01 0. 9.
      -3    1    3    0    0  103  2.2125201242E+02  8.5093354486E+01  1.5090554099E+02  2.8100901103E+02  5.0000000000E-01 0. 9.
-1000024    2    4    0    0    0 -2.8561567003E+01 -4.9406567684E+02  1.5191219773E+02  5.8341580010E+02  2.6903535800E+02 0. 9.
       2    1    4    0  103    0 -2.2986437315E+01  1.3862366732E+02 -5.6496682142E+00  1.4063045578E+02  3.3000000000E-01 0. 9.
      -1    1    4    0    0  102  2.4785305400E+02 -1.3131788069E+02  2.0339597603E+02  3.4647590700E+02  3.3000000000E-01 0. 9.
 1000022    1    8    0    0    0 -8.4838034197E+01 -3.4627777507E+02  6.0804825084E+01  3.8397148702E+02  1.2896157000E+02 0. 9.
     -24    2    8    0    0    0  5.6276467194E+01 -1.4778790177E+02  9.1107372643E+01  1.9944431308E+02  8.0431188000E+01 0. 9.
       1    1   12    0  104    0  6.4597797655E+01 -1.4729442252E+02  6.7537885630E+01  1.7444195959E+02  3.3000000000E-01 0. 9.
      -2    1   12    0    0  104 -8.3213304613E+00 -4.9347924267E-01  2.3569487013E+01  2.5002353498E+01  3.3000000000E-01 0. 9.
</event>
<event>
    16   271  1.000000E+00  1.119211E+03  7.987579E-03  9.156383E-02
       2   -1    0    0  101    0  0.0000000000E+00  0.0000000000E+00  7.4195590891E+02  7.4195590891E+02  0.0000000000E+00 0. 9.
       2   -1    0    0  102    0  0.0000000000E+00  0.0000000000E+00 -1.7325624298E+03  1.7325624298E+03  0.0000000000E+00 0. 9.
 1000002    2    1    2  101    0 -3.2882633983E+02 -4.0177389197E+02 -6.9309234218E+02  1.3164386812E+03  9.9150632100E+02 0. 9.
 1000002    2    1    2  102    0  3.2882633983E+02  4.0177389197E+02 -2.9751417874E+02  1.1580796575E+03  9.9150632100E+02 0. 9.
 1000024    2    3    0    0    0  1.4791696374E+02 -5.3998502749E+02 -3.4935479898E+02  7.1266545973E+02  2.6903535800E+02 0. 9.
       1    1    3    0  101    0 -4.7674330357E+02  1.3821113551E+02 -3.4373754321E+02  6.0377322149E+02  3.3000000000E-01 0. 9.
 1000023    2    4    0    0    0 -2.6087421541E+02  3.5432261720E+02 -2.2295326276E+02  5.6179297529E+02  2.6889276000E+02 0. 9.
       2    1    4    0  102    0  5.8970055524E+02  4.7451274773E+01 -7.4560915977E+01  5.9628668224E+02  3.3000000000E-01 0. 9.
 1000022    1    5    0    0    0  1.7576338417E+02 -4.2477677045E+02 -2.8030515212E+02  5.5365163847E+02  1.2896157000E+02 0. 9.
      24    2    5    0    0    0 -2.7846420433E+01 -1.1520825703E+02 -6.9049646853E+01  1.5901382126E+02  8.0431188000E+01 0. 9.
 1000022    1    7    0    0    0 -1.2012557070E+02  1.3657027409E+02 -6.2852007716E+01  2.3165287374E+02  1.2896157000E+02 0. 9.
      25    2    7    0    0    0 -1.4074864471E+02  2.1775234311E+02 -1.6010125505E+02  3.3014010155E+02  1.2701893900E+02 0. 9.
     -11    1   10    0    0    0 -5.2014074109E+01 -9.9744169820E+01 -6.5319286506E+01  1.3008063848E+02  5.1000000000E-04 0. 9.
      12    1   10    0    0    0  2.4167653676E+01 -1.5464087214E+01 -3.7303603471E+00  2.8933182781E+01  0.0000000000E+00 0. 9.
       5    1   12    0  103    0 -1.6231337841E+02  1.8811181266E+02 -1.5484617036E+02  2.9280038140E+02  4.8000000000E+00 0. 9.
      -5    1   12    0    0  103  2.1564733707E+01  2.9640530453E+01 -5.2550846840E+00  3.7339720144E+01  4.8000000000E+00 0. 9.
</event>
<event>
    12   226  1.000000E+00  3.362578E+02  7.878634E-03  1.057746E-01
       2   -1    0    0  101    0  0.0000000000E+00  0.0000000000E+00  1.8241240587E+03  1.8241240587E+03  0.0000000000E+00 0. 9.
      -2   -1    0    0    0  101  0.0000000000E+00  0.0000000000E+00 -6.3693528652E+01  6.3693528652E+01  0.0000000000E+00 0. 9.
 1000024    2    1    2    0    0 -1.5491649707E+02 -1.2919052085E+02  1.0347846285E+03  1.0880480517E+03  2.6903535800E+02 0. 9.
-1000024    2    1    2    0    0  1.5491649707E+02  1.2919052085E+02  7.2564590156E+02  7.9976953559E+02  2.6903535800E+02 0. 9.
 1000022    1    3    0    0    0 -8.5909698422E+01 -7.7611144670E+01  8.5966036782E+02  8.7695552943E+02  1.2896157000E+02 0. 9.
      24    2    3    0    0    0 -6.9006798653E+01 -5.1579376183E+01  1.7512426064E+02  2.1109252231E+02  8.0431188000E+01 0. 9.
 1000022    1    4    0    0    0  1.1239534630E+02  2.6750360722E+01  5.5237366850E+02  5.7887481536E+02  1.2896157000E+02 0. 9.
     -24    2    4    0    0    0  4.2521150772E+01  1.0244016013E+02  1.7327223307E+02  2.2089472023E+02  8.0431188000E+01 0. 9.
     -13    1    6    0    0    0 -1.7493365761E+00  1.9682636584E+01  3.2955333158E+01  3.8425662114E+01  1.0566000000E-01 0. 9.
      14    1    6    0    0    0 -6.7257462077E+01 -7.1262012767E+01  1.4216892749E+02  1.7266686020E+02  0.0000000000E+00 0. 9.
       3    1    8    0  102    0  2.4808694955E+01  9.4577935650E+01  1.7593077014E+02  2.0127678241E+02  5.0000000000E-01 0. 9.
      -4    1    8    0    0  102  1.7712455816E+01  7.8622244813E+00 -2.6585370717E+00  1.9617937817E+01  1.5000000000E+00 0. 9.
</event>
<event>
    12   230  1.000000E+00  2.757339E+02  7.860940E-03  1.085549E-01
       2   -1    0    0  101    0  0.0000000000E+00  0.0000000000E+00  3.4293947400E+02  3.4293947400E+02  0.0000000000E+00 0. 9.
      -1   -1    0    0    0  101  0.0000000000E+00  0.0000000000E+00 -2.3487181227E+02  2.3487181227E+02  0.0000000000E+00 0. 9.
 1000024    2    1    2    0    0 -5.8536616133E+01 -1.6154792761E+01  1.2246739718E+02  3.0177110528E+02  2.6903535800E+02 0. 9.
 1000023    2    1    2    0    0  5.8536616133E+01  1.6154792761E+01 -1.4399735451E+01  2.7604018099E+02  2.6889276000E+02 0. 9.
 1000022    1    3    0    0    0 -5.3573591803E+01 -8.5299739804E+01  4.3141684894E+01  1.6922903670E+02  1.2896157000E+02 0. 9.
      24    2    3    0    0    0 -4.9630243304E+00  6.9144947043E+01  7.9325712284E+01  1.3254206858E+02  8.0431188000E+01 0. 9.
 1000022    1    4    0    0    0  1.7121006030E+01 -2.1338439610E+00  3.1006828626E+01  1.3375422272E+02  1.2896157000E+02 0. 9.
      25    2    4    0    0    0  4.1415610104E+01  1.8288636722E+01 -4.5406564077E+01  1.4228595826E+02  1.2701893900E+02 0. 9.
     -15    1    6    0    0    0 -2.9628824818E+01  7.4679376677E+01  6.5850474681E+01  1.0389571361E+02  1.7770000000E+00 0. 9.
      16    1    6    0    0    0  2.4665800488E+01 -5.5344296336E+00  1.3475237603E+01  2.8646354979E+01  0.0000000000E+00 0. 9.
       5    1    8    0  102    0  1.0391153842E+01 -2.3349403810E+01  3.6724437051E+01  4.4998833464E+01  4.8000000000E+00 0. 9.
      -5    1    8    0    0  102  3.1024456261E+01  4.1638040532E+01 -8.2131001128E+01  9.7287124801E+01  4.8000000000E+00 0. 9.
</event>
<event>
    12   226  1.000000E+00  2.943090E+02  7.866744E-03  1.076255E-01
       2   -1    0    0  101    0  0.0000000000E+00  0.0000000000E+00  3.5187353602E+02  3.5187353602E+02  0.0000000000E+00 0. 9.
      -2   -1    0    0    0  101  0.0000000000E+00  0.0000000000E+00 -2.6042132759E+02  2.6042132759E+02  0.0000000000E+00 0. 9.
 1000024    2    1    2    0    0  8.4216945809E+01 -8.4529810492E+01  1.1736446198E+02  3.1684731909E+02  2.6903535800E+02 0. 9.
-1000024    2    1    2    0    0 -8.4216945809E+01  8.4529810492E+01 -2.5912253546E+01  2.9544754452E+02  2.6903535800E+02 0. 9.
 1000022    1    3    0    0    0 -4.2805756713E+00  2.5807061644E+01  5.1249381673E+01  1.4121583982E+02  1.2896157000E+02 0. 9.
      24    2    3    0    0    0  8.8497521481E+01 -1.1033687214E+02  6.6115080307E+01  1.7563147926E+02  8.0431188000E+01 0. 9.
 1000022    1    4    0    0    0 -1.0723903294E+02 -6.4303384599E+00  5.4890739569E+00  1.6793682118E+02  1.2896157000E+02 0. 9.
     -24    2    4    0    0    0  2.3022087133E+01  9.0960148952E+01 -3.1401327503E+01  1.2751072333E+02  8.0431188000E+01 0. 9.
      -1    1    6    0    0  102  1.5427577440E+01 -6.3762414451E+01 -1.6575919667E+00  6.5624021161E+01  3.3000000000E-01 0. 9.
       2    1    6    0  102    0  7.3069944041E+01 -4.6574457685E+01  6.7772672274E+01  1.1000745810E+02  3.3000000000E-01 0. 9.
       3    1    8    0  103    0  5.7075873116E+00 -8.2772574539E+00 -2.4545931378E+01  2.6530026218E+01  5.0000000000E-01 0. 9.
      -4    1    8    0    0  103  1.7314499821E+01  9.9237406406E+01 -6.8553961244E+00  1.0098069712E+02  1.5000000000E+00 0. 9.
</event>
<event>
    19   271  1.000000E+00  1.070165E+03  7.983465E-03  9.202456E-02
       2   -1    0    0  101    0  0.0000000000E+00  0.0000000000E+00  8.5561837289E+02  8.5561837289E+02  0.0000000000E+00 0. 9.
       2   -1    0    0  102    0  0.0000000000E+00  0.0000000000E+00 -2.2645574576E+03  2.2645574576E+03  0.0000000000E+00 0. 9.
 1000002    2    1    2  102    0 -3.4372667833E+02  2.0980907582E+02  2.9317152901E+02  1.1095955154E+03  9.9150632100E+02 0. 9.
 1000002    2    1    2  101    0  3.4372667833E+02 -2.0980907582E+02 -1.7021106137E+03  2.0105803151E+03  9.9150632100E+02 0. 9.
 1000021    2    3    0  102  103 -2.8135079722E+02  2.6835455172E+02  3.4543295565E+02  1.0093473787E+03  8.6503512500E+02 0. 9.
       2    1    3    0  103    0 -6.2375881101E+01 -5.8545475902E+01 -5.2261426635E+01  1.0024813667E+02  3.3000000000E-01 0. 9.
 1000023    2    4    0    0    0 -6.2409407969E+01 -5.9814233130E+00 -1.4786255007E+03  1.5041832998E+03  2.6889276000E+02 0. 9.
       2    1    4    0  101    0  4.0613608630E+02 -2.0382765250E+02 -2.2348511301E+02  5.0639701535E+02  3.3000000000E-01 0. 9.
-1000024    2    5    0    0    0  2.1735776729E+01  1.7849034931E+02  3.4624279005E+02  4.7391491040E+02  2.6903535800E+02 0. 9.
       2    1    5    0  102    0 -1.5936381221E+02  3.9654728261E+01 -2.1630627306E+02  2.7158393690E+02  3.3000000000E-01 0. 9.
      -1    1    5    0    0  103 -1.4372276174E+02  5.0209474149E+01  2.1549643866E+02  2.6384853138E+02  3.3000000000E-01 0. 9.
 1000022    1    7    0    0    0 -9.8092105096E+01 -4.0071535420E+01 -7.5969365982E+02  7.7781317316E+02  1.2896157000E+02 0. 9.
      23    2    7    0    0    0  3.5682697126E+01  3.4090112107E+01 -7.1893184088E+02  7.2637012662E+02  9.1187600000E+01 0. 9.
 1000022    1    9    0    0    0  6.1655304059E+01  2.4458583447E+01  1.4556316077E+02  2.0547340250E+02  1.2896157000E+02 0. 9.
     -24    2    9    0    0    0 -3.9919527331E+01  1.5403176586E+02  2.0067962927E+02  2.6844150790E+02  8.0431188000E+01 0. 9.
       1    1   13    0  104    0  2.3466084704E+01  6.1058101816E+01 -6.0962317006E+02  6.1312255488E+02  3.3000000000E-01 0. 9.
      -1    1   13    0    0  104  1.2216612422E+01 -2.6967989709E+01 -1.0930867082E+02  1.1324757174E+02  3.3000000000E-01 0. 9.
      15    1   15    0    0    0 -3.8515467193E+01  1.1169058040E+02  8.5870428337E+01  1.4606544819E+02  1.7770000000E+00 0. 9.
     -16    1   15    0    0    0 -1.4040601380E+00  4.2341185461E+01  1.1480920094E+02  1.2237605971E+02  0.0000000000E+00 0. 9.
</event>
<event>
    12   230  1.000000E+00  3.738941E+02  7.888126E-03  1.043458E-01
       1   -1    0    0  101    0  0.0000000000E+00  0.0000000000E+00  4.2542913297E+02  4.2542913297E+02  0.0000000000E+00 0. 9.
      -2   -1    0    0    0  101  0.0000000000E+00  0.0000000000E+00 -3.5389395367E+02  3.5389395367E+02  0.0000000000E+00 0. 9.
 1000023    2    1    2    0    0 -2.3582753699E+02 -1.0881390902E+02  1.3993340889E+02  3.9917385849E+02  2.6889276000E+02 0. 9.
-1000024    2    1    2    0    0  2.3582753699E+02  1.0881390902E+02 -6.8398229585E+01  3.8014922815E+02  2.6903535800E+02 0. 9.
 1000022    1    3    0    0    0 -1.2687460017E+02 -1.4272937701E+01  6.2002663690E+01  1.9177147275E+02  1.2896157000E+02 0. 9.
      25    2    3    0    0    0 -1.0895293682E+02 -9.4540971320E+01  7.7930745199E+01  2.0740238575E+02  1.2701893900E+02 0. 9.
 1000022    1    4    0    0    0  7.7778135127E+01  1.8640138705E+01  3.5295264273E+01  1.5580030581E+02  1.2896157000E+02 0. 9.
     -24    2    4    0    0    0  1.5804940186E+02  9.0173770316E+01 -1.0369349386E+02  2.2434892234E+02  8.0431188000E+01 0. 9.
       5    1    6    0  102    0 -5.0482319419E+00 -3.8285565536E+01 -2.8557439178E+01  4.8268379987E+01  4.8000000000E+00 0. 9.
      -5    1    6    0    0  102 -1.0390470488E+02 -5.6255405784E+01  1.0648818438E+02  1.5913400576E+02  4.8000000000E+00 0. 9.
       3    1    8    0  103    0  3.6222508434E+01  5.3614922195E+00  9.3067516928E+00  3.7784670742E+01  5.0000000000E-01 0. 9.
      -4    1    8    0    0  103  1.2182689343E+02  8.4812278097E+01 -1.1300024555E+02  1.8656425160E+02  1.5000000000E+00 0. 9.
</event>
<event>
    21   258  1.000000E+00  1.161715E+03  7.991004E-03  9.118411E-02
      21   -1    0    0  101  102  0.0000000000E+00  0.0000000000E+00  1.0440789574E+03  1.0440789574E+03  0.0000000000E+00 0. 9.
       2   -1    0    0  102    0  0.0000000000E+00  0.0000000000E+00 -1.2918740020E+03  1.2918740020E+03  0.0000000000E+00 0. 9.
 1000021    2    1    2  101  103  3.4340696150E+02 -6.0495370065E+02 -7.5951871544E+01  1.1126328125E+03  8.6503512500E+02 0. 9.
 1000002    2    1    2  103    0 -3.4340696150E+02  6.0495370065E+02 -1.7184317311E+02  1.2233201469E+03  9.9150632100E+02 0. 9.
-1000024    2    3    0    0    0  1.7839093573E+02 -4.1816749873E+02 -1.9500474174E+02  5.6311122888E+02  2.6903535800E+02 0. 9.
       6    2    3    0  101    0  1.1719893240E+02 -2.1983209366E+02  2.5835285378E+02  3.9850492621E+02  1.7320000000E+02 0. 9.
      -5    1    3    0    0  103  4.7817093366E+01  3.3045891733E+01 -1.3929998359E+02  1.5101665738E+02  4.8000000000E+00 0. 9.
 1000024    2    4    0    0    0  2.0324558139E+02  1.1237485942E+02 -3.1355687331E+02  4.7395655080E+02  2.6903535800E+02 0. 9.
       1    1    4    0  103    0 -5.4665254289E+02  4.9257884123E+02  1.4171370020E+02  7.4936359612E+02  3.3000000000E-01 0. 9.
 1000022    1    5    0    0    0  2.1784717432E+01 -1.0691432761E+02 -8.4169606747E+01  1.8873488442E+02  1.2896157000E+02 0. 9.
     -24    2    5    0    0    0  1.5660621829E+02 -3.1125317112E+02 -1.1083513499E+02  3.7437634446E+02  8.0431188000E+01 0. 9.
      24    2    6    0    0    0  1.1661286928E+02 -1.6204346512E+02  1.1535946844E+02  2.4419997714E+02  8.0431188000E+01 0. 9.
       5    1    6    0  101    0  5.8606311995E-01 -5.7788628533E+01  1.4299338534E+02  1.5430494908E+02  4.8000000000E+00 0. 9.
 1000022    1    8    0    0    0  1.2621851152E+02  1.4849067570E+02 -2.4361719129E+02  3.3758112484E+02  1.2896157000E+02 0. 9.
      24    2    8    0    0    0  7.7027069874E+01 -3.6115816284E+01 -6.9939682025E+01  1.3637542595E+02  8.0431188000E+01 0. 9.
       3    1   11    0  104    0  8.0178619491E+01 -7.6983869042E+01 -3.2955182296E+01  1.1593714313E+02  5.0000000000E-01 0. 9.
      -4    1   11    0    0  104  7.6427598803E+01 -2.3426930208E+02 -7.7879952692E+01  2.5843920133E+02  1.5000000000E+00 0. 9.
     -11    1   12    0    0    0  6.1536613069E+01 -6.7363411931E+01  9.2652810808E+00  9.1708393557E+01  5.1000000000E-04 0. 9.
      12    1   12    0    0    0  5.5076256215E+01 -9.4680053192E+01  1.0609418736E+02  1.5249158358E+02  0.0000000000E+00 0. 9.
      -3    1   15    0    0  105  8.2465294219E+01 -2.9496335441E+01 -2.5681433480E+01  9.1270721377E+01  5.0000000000E-01 0. 9.
       4    1   15    0  105    0 -5.4382243452E+00 -6.6194808425E+00 -4.4258248545E+01  4.5104704577E+01  1.5000000000E+00 0. 9.
</event>
<event>
    20   259  1.000000E+00  1.119877E+03  7.987633E-03  9.155775E-02
       2   -1    0    0  101    0  0.0000000000E+00  0.0000000000E+00  2.4349195648E+03  2.4349195648E+03  0.0000000000E+00 0. 9.
      21   -1    0    0  102  101  0.0000000000E+00  0.0000000000E+00 -5.3455543399E+02  5.3455543399E+02  0.0000000000E+00 0. 9.
 2000002    2    1    2  103    0 -4.7596894248E+02  4.0261483306E+02  7.0162941304E+02  1.3651384290E+03  9.9129912700E+02 0. 9.
 1000021    2    1    2  102  103  4.7596894248E+02 -4.0261483306E+02  1.1987347178E+03  1.6043365698E+03  8.6503512500E+02 0. 9.
 1000021    2    3    0  103  104 -4.4922709811E+02  4.0993426855E+02  7.5886350100E+02  1.3015416516E+03  8.6503512500E+02 0. 9.
       2    1    3    0  104    0 -2.6741844372E+01 -7.3194354923E+00 -5.7234087960E+01  6.3596777442E+01  3.3000000000E-01 0. 9.
 1000024    2    4    0    0    0  2.7348411932E+02 -4.5625052367E+02  7.0178160748E+02  9.2077986095E+02  2.6903535800E+02 0. 9.
      -4    1    4    0    0  103  3.1812415567E+02  1.1212551216E+02  3.2660837817E+02  4.6952144955E+02  1.5000000000E+00 0. 9.
       3    1    4    0  102    0 -1.1563933251E+02 -5.8489821550E+01  1.7034473215E+02  2.1403525929E+02  5.0000000000E-01 0. 9.
-1000024    2    5    0    0    0 -3.5169363955E+02  1.3718387504E+02  7.9362052941E+02  9.1908726475E+02  2.6903535800E+02 0. 9.
       4    1    5    0  103    0 -1.6728481354E+02  1.4288420106E+02  2.8877794074E+01  2.2189249817E+02  1.5000000000E+00 0. 9.
      -3    1    5    0    0  104  6.9751354984E+01  1.2986619245E+02 -6.3634822477E+01  1.6056188868E+02  5.0000000000E-01 0. 9.
 1000022    1    7    0    0    0  1.8114899237E+02 -3.6614191877E+02  4.1629214157E+02  5.9733164640E+02  1.2896157000E+02 0. 9.
      24    2    7    0    0    0  9.2335126951E+01 -9.0108604902E+01  2.8548946591E+02  3.2344821455E+02  8.0431188000E+01 0. 9.
 1000022    1   10    0    0    0 -7.3344440269E+01  2.4418024527E+01  2.1719500384E+02  2.6415980593E+02  1.2896157000E+02 0. 9.
     -24    2   10    0    0    0 -2.7834919928E+02  1.1276585051E+02  5.7642552557E+02  6.5492745881E+02  8.0431188000E+01 0. 9.
      -1    1   14    0    0  105 -7.3130348805E+00  1.5285235984E+00 -9.6078759651E-03  7.4783591693E+00  3.3000000000E-01 0. 9.
       2    1   14    0  105    0  9.9648161831E+01 -9.1637128501E+01  2.8549907379E+02  3.1596985538E+02  3.3000000000E-01 0. 9.
       1    1   16    0  106    0 -1.2116329272E+02  7.6784426668E+01  2.0701686718E+02  2.5185806296E+02  3.3000000000E-01 0. 9.
      -2    1   16    0    0  106 -1.5718590656E+02  3.5981423843E+01  3.6940865838E+02  4.0306939585E+02  3.3000000000E-01 0. 9.
</event>
<event>
    12   230  1.000000E+00  3.095440E+02  7.871243E-03  1.069169E-01
      -1   -1    0    0    0  101  0.0000000000E+00  0.0000000000E+00  1.9320865313E+02  1.9320865313E+02  0.0000000000E+00 0. 9.
       2   -1    0    0  101    0  0.0000000000E+00  0.0000000000E+00 -6.2439483823E+02  6.2439483823E+02  0.0000000000E+00 0. 9.
 1000023    2    1    2    0    0 -8.8512689239E+01  1.2506524007E+02 -3.0129029081E+01  3.1094514822E+02  2.6889276000E+02 0. 9.
 1000024    2    1    2    0    0  8.8512689239E+01 -1.2506524007E+02 -4.0105715601E+02  5.0665834314E+02  2.6903535800E+02 0. 9.
 1000022    1    3    0    0    0 -6.9626787037E+01  7.4110685362E+01 -9.1834128142E+01  1.8816183669E+02  1.2896157000E+02 0. 9.
      23    2    3    0    0    0 -1.8885902202E+01  5.0954554706E+01  6.1705099061E+01  1.2278331153E+02  9.1187600000E+01 0. 9.
 1000022    1    4    0    0    0  6.5180468165E+01 -8.3097771143E+01 -3.7351192006E+02  4.0901830517E+02  1.2896157000E+02 0. 9.
      24    2    4    0    0    0  2.3332221074E+01 -4.1967468924E+01 -2.7545235953E+01  9.7640037971E+01  8.0431188000E+01 0. 9.
       2    1    6    0  102    0  1.8367230032E+01  1.5166070491E+01  6.6754351767E+01  7.0877480295E+01  3.3000000000E-01 0. 9.
      -2    1    6    0    0  102 -3.7253132234E+01  3.5788484215E+01 -5.0492527061E+00  5.1905831238E+01  3.3000000000E-01 0. 9.
      -3    1    8    0    0  103  3.5200261505E+01 -6.1295815603E+01 -2.3911717769E+01  7.4620745554E+01  5.0000000000E-01 0. 9.
       4    1    8    0  103    0 -1.1868040431E+01  1.9328346678E+01 -3.6335181845E+00  2.3019292417E+01  1.5000000000E+00 0. 9.
</event>
<event>
    20   259  1.000000E+00  1.009916E+03  7.978151E-03  9.262725E-02
      21   -1    0    0  101  102  0.0000000000E+00  0.0000000000E+00  1.3017675335E+03  1.3017675335E+03  0.0000000000E+00 0. 9.
       2   -1    0    0  102    0  0.0000000000E+00  0.0000000000E+00 -1.1050526764E+03  1.1050526764E+03  0.0000000000E+00 0. 9.
 1000021    2    1    2  101  103 -8.1431109495E+01  3.8447278396E+02  7.4535745017E+02  1.2075983783E+03  8.6503512500E+02 0. 9.
 2000002    2    1    2  103    0  8.1431109495E+01 -3.8447278396E+02 -5.4864259313E+02  1.1992218316E+03  9.9129912700E+02 0. 9.
 1000023    2    3    0    0    0 -2.0600589365E+01 -1.8657757054E+01 -7.1117672852E+01  2.7952376635E+02  2.6889276000E+02 0. 9.
       2    1    3    0  101    0 -3.1292872668E+01  3.1798770335E+02  4.5799455167E+02  5.5843938044E+02  3.3000000000E-01 0. 9.
      -2    1    3    0    0  103 -2.9537647462E+01  8.5142837666E+01  3.5848057135E+02  3.6963523149E+02  3.3000000000E-01 0. 9.
 1000021    2    4    0  103  104  1.5360994414E+02 -3.0816468811E+02 -5.7050221528E+02  1.0919340800E+03  8.6503512500E+02 0. 9.
       2    1    4    0  104    0 -7.2178834641E+01 -7.6308095852E+01  2.1859622156E+01  1.0728775160E+02  3.3000000000E-01 0. 9.
 1000022    1    5    0    0    0 -2.1980866860E+01  1.2805657433E+00 -7.5156399346E+01  1.5087865739E+02  1.2896157000E+02 0. 9.
      25    2    5    0    0    0  1.3802774949E+00 -1.9938322797E+01  4.0387264941E+00  1.2864510896E+02  1.2701893900E+02 0. 9.
-1000024    2    8    0    0    0 -8.5753576305E+00 -2.5390546230E+02 -8.1209960269E+01  3.7883585106E+02  2.6903535800E+02 0. 9.
       4    1    8    0  103    0 -1.0030291674E+02 -1.7108454385E+02 -8.1869887918E+01  2.1455890752E+02  1.5000000000E+00 0. 9.
      -3    1    8    0    0  104  2.6248821850E+02  1.1682531804E+02 -4.0742236710E+02  4.9853932142E+02  5.0000000000E-01 0. 9.
      22    1   11    0    0    0 -3.4466452057E-01 -4.8319284170E+00  6.5323259769E+01  6.5502630426E+01  0.0000000000E+00 0. 9.
      22    1   11    0    0    0  1.7249420155E+00 -1.5106394380E+01 -6.1284533275E+01  6.3142478530E+01  0.0000000000E+00 0. 9.
 1000022    1   12    0    0    0 -6.1186264381E+01 -9.8591446917E+01 -9.1056950285E+01  1.9592469749E+02  1.2896157000E+02 0. 9.
     -24    2   12    0    0    0  5.2610906750E+01 -1.5531401539E+02  9.8469900168E+00  1.8291115357E+02  8.0431188000E+01 0. 9.
       1    1   18    0  105    0  4.7326331344E+00 -2.2038681345E+01  3.2441506938E+01  3.9505209330E+01  3.3000000000E-01 0. 9.
      -2    1   18    0    0  105  4.7878273616E+01 -1.3327533404E+02 -2.2594516921E+01  1.4340594424E+02  3.3000000000E-01 0. 9.
</event>
<event>
    12   226  1.000000E+00  3.156019E+02  7.872972E-03  1.066472E-01
       2   -1    0    0  101    0  0.0000000000E+00  0.0000000000E+00  6.7658362832E+02  6.7658362832E+02  0.0000000000E+00 0. 9.
      -2   -1    0    0    0  101  0.0000000000E+00  0.0000000000E+00 -1.5259228199E+02  1.5259228199E+02  0.0000000000E+00 0. 9.
 1000024    2    1    2    0    0  1.3043768299E+02 -1.0104719145E+02  3.3980915541E+02  4.6376158746E+02  2.6903535800E+02 0. 9.
-1000024    2    1    2    0    0 -1.3043768299E+02  1.0104719145E+02  1.8418219092E+02  3.6541432286E+02  2.6903535800E+02 0. 9.
 1000022    1    3    0    0    0  1.5475063539E+02 -1.1114739657E+02  2.3244341686E+02  3.2705126738E+02  1.2896157000E+02 0. 9.
      24    2    3    0    0    0 -2.4312952393E+01  1.0100205118E+01  1.0736573855E+02  1.3671032007E+02  8.0431188000E+01 0. 9.
 1000022    1    4    0    0    0  9.6519722803E+00  3.1226534454E+01  1.1659741710E+02  1.7690195374E+02  1.2896157000E+02 0. 9.
     -24    2    4    0    0    0 -1.4008965527E+02  6.9820657000E+01  6.7584773817E+01  1.8851236913E+02  8.0431188000E+01 0. 9.
     -11    1    6    0    0    0  3.9568366456E+00 -1.6194089635E+01  9.4583636971E+01  9.6041498729E+01  5.1000000000E-04 0. 9.
      12    1    6    0    0    0 -2.8269789039E+01  2.6294294753E+01  1.2782101579E+01  4.0668821345E+01  0.0000000000E+00 0. 9.
       1    1    8    0  102    0 -6.3960333857E+01  6.9853221200E+01  1.4773340720E+01  9.5858006004E+01  3.3000000000E-01 0. 9.
      -2    1    8    0    0  102 -7.6129321418E+01 -3.2564199279E-02  5.2811433097E+01  9.2654363123E+01  3.3000000000E-01 0. 9.
</event>
<event>
    12   230  1.000000E+00  3.623259E+02  7.885312E-03  1.047650E-01
       1   -1    0    0  101    0  0.0000000000E+00  0.0000000000E+00  1.0674428863E+03  1.0674428863E+03  0.0000000000E+00 0. 9.
      -2   -1    0    0    0  101  0.0000000000E+00  0.0000000000E+00 -1.2504493993E+02  1.2504493993E+02  0.0000000000E+00 0. 9.
 1000023    2    1    2    0    0  2.4190411223E+02 -2.0513603236E+01  5.4764824973E+02  6.5662799913E+02  2.6889276000E+02 0. 9.
-1000024    2    1    2    0    0 -2.4190411223E+02  2.0513603236E+01  3.9474969660E+02  5.3585982706E+02  2.6903535800E+02 0. 9.
 1000022    1    3    0    0    0  9.3458134674E+01 -9.5185470091E+00  3.1114613644E+02  3.4966845788E+02  1.2896157000E+02 0. 9.
      25    2    3    0    0    0  1.4844597755E+02 -1.0995056227E+01  2.3650211329E+02  3.0695954126E+02  1.2701893900E+02 0. 9.
 1000022    1    4    0    0    0 -3.5273108048E+01 -1.6195797503E+01  1.8177029850E+02  2.2622560413E+02  1.2896157000E+02 0. 9.
     -24    2    4    0    0    0 -2.0663100418E+02  3.6709400739E+01  2.1297939810E+02  3.0963422293E+02  8.0431188000E+01 0. 9.
       5    1    6    0  102    0  6.7711683785E+01 -6.7634821260E+01  1.0011812584E+02  1.3858578675E+02  4.8000000000E+00 0. 9.
      -5    1    6    0    0  102  8.0734293766E+01  5.6639765034E+01  1.3638398745E+02  1.6837375450E+02  4.8000000000E+00 0. 9.
      11    1    8    0    0    0 -2.2618474117E+01 -2.1646465035E+01  3.6400787717E+01  4.8012312656E+01  5.1000000000E-04 0. 9.
     -12    1    8    0    0    0 -1.8401253006E+02  5.8355865774E+01  1.7657861038E+02  2.6162191027E+02  0.0000000000E+00 0. 9.
</event>
<event>
    17   258  1.000000E+00  9.520853E+02  7.972752E-03  9.324872E-02
       1   -1    0    0  101    0  0.0000000000E+00  0.0000000000E+00  1.2250864829E+03  1.2250864829E+03  0.0000000000E+00 0. 9.
      21   -1    0    0  102  101  0.0000000000E+00  0.0000000000E+00 -7.5425605337E+02  7.5425605337E+02  0.0000000000E+00 0. 9.
 1000001    2    1    2  103    0  5.1986444943E+01 -1.8784458160E+02  9.9865800658E+01  1.0181512438E+03  9.9431916400E+02 0. 9.
 1000021    2    1    2  102  103 -5.1986444943E+01  1.8784458160E+02  3.7096462889E+02  9.6119129244E+02  8.6503512500E+02 0. 9.
-1000024    2    3    0    0    0 -4.0947617111E+02 -4.2916781749E+00  1.6558858954E+02  5.1719315352E+02  2.6903535800E+02 0. 9.
       2    1    3    0  103    0  4.6146261606E+02 -1.8355290343E+02 -6.5722788886E+01  5.0095809032E+02  3.3000000000E-01 0. 9.
-1000024    2    4    0    0    0  1.3638353366E+02  2.6692342837E+01  3.2197781375E+02  4.4199851337E+02  2.6903535800E+02 0. 9.
       2    1    4    0  102    0 -2.8882745116E+02  1.8006922431E+02 -8.4853633003E+01  3.5077980275E+02  3.3000000000E-01 0. 9.
      -1    1    4    0    0  103  1.0045747256E+02 -1.8916985543E+01  1.3384044814E+02  1.6841297632E+02  3.3000000000E-01 0. 9.
 1000022    1    5    0    0    0 -2.1785001702E+02 -4.6528268729E+01  1.6434634612E+01  2.5792381329E+02  1.2896157000E+02 0. 9.
     -24    2    5    0    0    0 -1.9162615409E+02  4.2236590555E+01  1.4915395493E+02  2.5926934024E+02  8.0431188000E+01 0. 9.
 1000022    1    7    0    0    0  1.5261399544E+02  6.6664773711E+01  2.3994387108E+02  3.1927945669E+02  1.2896157000E+02 0. 9.
     -24    2    7    0    0    0 -1.6230461780E+01 -3.9972430874E+01  8.2033942668E+01  1.2271905668E+02  8.0431188000E+01 0. 9.
       1    1   11    0  104    0 -6.9956672425E+01 -1.6069593445E+01  8.0612551313E+01  1.0793822390E+02  3.3000000000E-01 0. 9.
      -2    1   11    0    0  104 -1.2166948166E+02  5.8306184000E+01  6.8541403618E+01  1.5133111633E+02  3.3000000000E-01 0. 9.
       1    1   13    0  105    0 -6.6242706163E+00 -3.6595233449E+01  9.7413197801E+01  1.0427143462E+02  3.3000000000E-01 0. 9.
      -2    1   13    0    0  105 -9.6061911638E+00 -3.3771974248E+00 -1.5379255133E+01  1.8447622057E+01  3.3000000000E-01 0. 9.
</event>
<event>
    12   226  1.000000E+00  3.665355E+02  7.886346E-03  1.046105E-01
      -1   -1    0    0    0  101  0.0000000000E+00  0.0000000000E+00  5.7238005361E+02  5.7238005361E+02  0.0000000000E+00 0. 9.
       1   -1    0    0  101    0  0.0000000000E+00  0.0000000000E+00 -2.8752030790E+02  2.8752030790E+02  0.0000000000E+00 0. 9.
 1000024    2    1    2    0    0 -2.0038940970E+02  1.4768995483E+02 -4.1820228076E+01  3.6891353134E+02  2.6903535800E+02 0. 9.
-1000024    2    1    2    0    0  2.0038940970E+02 -1.4768995483E+02  3.2667997378E+02  4.9098683017E+02  2.6903535800E+02 0. 9.
 1000022    1    3    0    0    0 -1.2589393264E+01  4.0610188529E+01 -1.1641424383E+01  1.3628752523E+02  1.2896157000E+02 0. 9.
      24    2    3    0    0    0 -1.8780001643E+02  1.0707976631E+02 -3.0178803693E+01  2.3262600611E+02  8.0431188000E+01 0. 9.
 1000022    1    4    0    0    0  4.4259071039E+01 -5.9087220749E+01  2.2475208856E+02  2.6943413458E+02  1.2896157000E+02 0. 9.
     -24    2    4    0    0    0  1.5613033866E+02 -8.8602734086E+01  1.0192788522E+02  2.2155269560E+02  8.0431188000E+01 0. 9.
      -3    1    6    0    0  102 -1.3347990069E+02  9.0714523033E+01  1.2123157491E+01  1.6184322514E+02  5.0000000000E-01 0. 9.
       4    1    6    0  102    0 -5.4320115745E+01  1.6365243273E+01 -4.2301961184E+01  7.0782780970E+01  1.5000000000E+00 0. 9.
      15    1    8    0    0    0  3.0420356479E+01  1.4631571094E+01  1.3447943082E+01  3.6379745232E+01  1.7770000000E+00 0. 9.
     -16    1    8    0    0    0  1.2570998218E+02 -1.0323430518E+02  8.8479942138E+01  1.8517295036E+02  0.0000000000E+00 0. 9.
</event>
<event>
    12   230  1.000000E+00  2.806155E+02  7.862502E-03  1.083031E-01
      -1   -1    0    0    0  101  0.0000000000E+00  0.0000000000E+00  2.4871173109E+02  2.4871173109E+02  0.0000000000E+00 0. 9.
       2   -1    0    0  101    0  0.0000000000E+00  0.0000000000E+00 -3.9792884004E+02  3.9792884004E+02  0.0000000000E+00 0. 9.
 1000023    2    1    2    0    0 -7.5352124877E+01  2.6934060249E+01  7.1563433718E+01  2.8953070260E+02  2.6889276000E+02 0. 9.
 1000024    2    1    2    0    0  7.5352124877E+01 -2.6934060249E+01 -2.2078054266E+02  3.5710986852E+02  2.6903535800E+02 0. 9.
 1000022    1    3    0    0    0 -4.0906476419E+01  5.1528301825E+01  2.0407756828E+01  1.4620557027E+02  1.2896157000E+02 0. 9.
      25    2    3    0    0    0 -3.4445648458E+01 -2.4594241576E+01  5.1155676890E+01  1.4332513234E+02  1.2701893900E+02 0. 9.
 1000022    1    4    0    0    0  1.1161486827E+02  5.4121396798E+00 -1.9610691058E+02  2.5995418248E+02  1.2896157000E+02 0. 9.
      24    2    4    0    0    0 -3.6262743389E+01 -3.2346199929E+01 -2.4673632083E+01  9.7155686046E+01  8.0431188000E+01 0. 9.
       5    1    6    0  102    0  1.6252024969E+01  2.3927694362E+01  6.5297066866E+01  7.1577998117E+01  4.8000000000E+00 0. 9.
      -5    1    6    0    0  102 -5.0697673427E+01 -4.8521935939E+01 -1.4141389977E+01  7.1747134219E+01  4.8000000000E+00 0. 9.
      -3    1    8    0    0  103 -1.7356856101E+01 -2.3341214221E+00  2.8360264238E+01  3.3335614052E+01  5.0000000000E-01 0. 9.
       4    1    8    0  103    0 -1.8905887287E+01 -3.0012078507E+01 -5.3033896321E+01  6.3820071995E+01  1.5000000000E+00 0. 9.
</event>
<event>
    12   230  1.000000E+00  3.768888E+02  7.888841E-03  1.042399E-01
       2   -1    0    0  101    0  0.0000000000E+00  0.0000000000E+00  7.5453803298E+02  7.5453803298E+02  0.0000000000E+00 0. 9.
      -1   -1    0    0    0  101  0.0000000000E+00  0.0000000000E+00 -1.9401726805E+02  1.9401726805E+02  0.0000000000E+00 0. 9.
 1000024    2    1    2    0    0 -3.5071364359E+01 -2.6167436950E+02  3.6203619475E+02  5.2264108757E+02  2.6903535800E+02 0. 9.
 1000023    2    1    2    0    0  3.5071364359E+01  2.6167436950E+02  1.9848457018E+02  4.2591421347E+02  2.6889276000E+02 0. 9.
 1000022    1    3    0    0    0 -6.0884817836E+01 -2.0179436783E+02  3.3381549112E+02  4.1532131727E+02  1.2896157000E+02 0. 9.
      24    2    3    0    0    0  2.5813453477E+01 -5.9880001675E+01  2.8220703631E+01  1.0731977030E+02  8.0431188000E+01 0. 9.
 1000022    1    4    0    0    0  4.3838027405E+01  9.0634948096E+01  8.7193120191E+01  1.8539199877E+02  1.2896157000E+02 0. 9.
      25    2    4    0    0    0 -8.7666630459E+00  1.7103942141E+02  1.1129144999E+02  2.4052221470E+02  1.2701893900E+02 0. 9.
      -1    1    6    0    0  102  2.2070713065E+01 -1.5649662308E+01 -2.5809462439E+01  3.7393389215E+01  3.3000000000E-01 0. 9.
       2    1    6    0  102    0  3.7427404117E+00 -4.4230339367E+01  5.4030166070E+01  6.9926381086E+01  3.3000000000E-01 0. 9.
     -15    1    8    0    0    0  1.5118017031E+01  5.1111716067E+00 -2.1373407748E+01  2.6733103111E+01  1.7770000000E+00 0. 9.
      15    1    8    0    0    0 -2.3884680077E+01  1.6592824980E+02  1.3266485774E+02  2.1378911159E+02  1.7770000000E+00 0. 9.
</event>
<event>
    15   271  1.000000E+00  1.153333E+03  7.990338E-03  9.125763E-02
       2   -1    0    0  101    0  0.0000000000E+00  0.0000000000E+00  1.4884269398E+03  1.4884269398E+03  0.0000000000E+00 0. 9.
       1   -1    0    0  102    0  0.0000000000E+00  0.0000000000E+00 -8.9688082789E+02  8.9688082789E+02  0.0000000000E+00 0. 9.
 1000002    2    1    2  102    0 -3.7302596286E+02  4.5293695272E+02  2.2420798604E+02  1.1737351736E+03  9.9150632100E+02 0. 9.
 1000001    2    1    2  101    0  3.7302596286E+02 -4.5293695272E+02  3.6733812582E+02  1.2115725941E+03  9.9431916400E+02 0. 9.
 1000021    2    3    0  102  103 -2.8519058930E+02  3.0876534614E+02  1.0584127635E+02  9.6755250734E+02  8.6503512500E+02 0. 9.
       2    1    3    0  103    0 -8.7835373565E+01  1.4417160658E+02  1.1836670969E+02  2.0618266624E+02  3.3000000000E-01 0. 9.
-1000024    2    4    0    0    0  1.4473745757E+02 -1.0944400317E+02 -2.9023140678E+02  4.3536331356E+02  2.6903535800E+02 0. 9.
       2    1    4    0  101    0  2.2828850530E+02 -3.4349294955E+02  6.5756953260E+02  7.7620928051E+02  3.3000000000E-01 0. 9.
 1000022    1    5    0    0    0 -1.4526391679E+02 -2.7881722750E+02  4.3615100939E+01  3.4259891336E+02  1.2896157000E+02 0. 9.
       2    1    5    0  102    0 -1.6808861772E+02  5.2533563405E+02  3.9636786091E+01  5.5299411889E+02  3.3000000000E-01 0. 9.
      -2    1    5    0    0  103  2.8161945211E+01  6.2246939585E+01  2.2589389319E+01  7.1959475092E+01  3.3000000000E-01 0. 9.
 1000022    1    7    0    0    0  2.7349886001E+01 -5.7608444068E+01 -2.3224597188E+02  2.7319594998E+02  1.2896157000E+02 0. 9.
     -24    2    7    0    0    0  1.1738757157E+02 -5.1835559101E+01 -5.7985434899E+01  1.6216736358E+02  8.0431188000E+01 0. 9.
       1    1   13    0  104    0 -7.1162779596E+00  1.1677812815E+00 -2.0530098142E+01  2.1762328801E+01  3.3000000000E-01 0. 9.
      -2    1   13    0    0  104  1.2450384953E+02 -5.3003340382E+01 -3.7455336758E+01  1.4040503478E+02  3.3000000000E-01 0. 9.
</event>
<event>
    17   258  1.000000E+00  1.079640E+03  7.984274E-03  9.193356E-02
      21   -1    0    0  101  102  0.0000000000E+00  0.0000000000E+00  1.0819318342E+03  1.0819318342E+03  0.0000000000E+00 0. 9.
       2   -1    0    0  102    0  0.0000000000E+00  0.0000000000E+00 -1.3569307921E+03  1.3569307921E+03  0.0000000000E+00 0. 9.
 1000021    2    1    2  101  103 -4.0210880757E+02  3.7181470605E+02  4.2365660715E+02  1.1080200165E+03  8.6503512500E+02 0. 9.
 1000002    2    1    2  103    0  4.0210880757E+02 -3.7181470605E+02 -6.9865556511E+02  1.3308426098E+03  9.9150632100E+02 0. 9.
-1000024    2    3    0    0    0 -2.8444001631E+02  4.0635502842E+00  2.0923223076E+02  4.4393781723E+02  2.6903535800E+02 0. 9.
       2    1    3    0  101    0  1.0422123753E+02  3.5179648797E+02  1.8063596713E+01  3.6735437622E+02  3.3000000000E-01 0. 9.
      -1    1    3    0    0  103 -2.2189002879E+02  1.5954667797E+01  1.9636077967E+02  2.9672782309E+02  3.3000000000E-01 0. 9.
 1000024    2    4    0    0    0  3.9803233461E+02 -6.4764241730E+01  8.2276874134E+01  4.9170484467E+02  2.6903535800E+02 0. 9.
       1    1    4    0  103    0  4.0764729666E+00 -3.0705046432E+02 -7.8093243925E+02  8.3913776511E+02  3.3000000000E-01 0. 9.
 1000022    1    5    0    0    0 -2.3073185070E+02 -5.5922783955E+01  1.0580875212E+02  2.9015706652E+02  1.2896157000E+02 0. 9.
     -24    2    5    0    0    0 -5.3708165616E+01  5.9986334240E+01  1.0342347865E+02  1.5378075071E+02  8.0431188000E+01 0. 9.
 1000022    1    8    0    0    0  1.1456702191E+02 -1.7386759551E+01  8.5359187778E+01  1.9324900878E+02  1.2896157000E+02 0. 9.
      24    2    8    0    0    0  2.8346531269E+02 -4.7377482178E+01 -3.0823136443E+00  2.9845583589E+02  8.0431188000E+01 0. 9.
       3    1   11    0  104    0 -4.2307738526E+01 -8.7527765220E+00  4.9191781067E+01  6.5472415265E+01  5.0000000000E-01 0. 9.
      -4    1   11    0    0  104 -1.1400427090E+01  6.8739110762E+01  5.4231697578E+01  8.8308335441E+01  1.5000000000E+00 0. 9.
      -1    1   13    0    0  105  2.7669657007E+02 -2.8677464768E+01 -6.5995230033E+00  2.7825716788E+02  3.3000000000E-01 0. 9.
       2    1   13    0  105    0  6.7687426280E+00 -1.8700017410E+01  3.5172093590E+00  2.0198668015E+01  3.3000000000E-01 0. 9.
</event>
<event>
    15   241  1.000000E+00  8.350751E+02  7.960770E-03  9.466110E-02
       1   -1    0    0  101    0  0.0000000000E+00  0.0000000000E+00  1.0265230961E+03  1.0265230961E+03  0.0000000000E+00 0. 9.
      -2   -1    0    0    0  102  0.0000000000E+00  0.0000000000E+00 -6.5734385502E+02  6.5734385502E+02  0.0000000000E+00 0. 9.
 1000021    2    1    2  101  102  5.3345710828E+02  4.9406975521E+01  3.7482735685E+02  1.0843425891E+03  8.6503512500E+02 0. 9.
-1000024    2    1    2    0    0 -5.3345710828E+02 -4.9406975521E+01 -5.6481157652E+00  5.9952436203E+02  2.6903535800E+02 0. 9.
-1000024    2    3    0    0    0  2.7086890474E+02 -7.1139804433E+01 -2.6567776131E+01  3.8925146873E+02  2.6903535800E+02 0. 9.
       4    1    3    0  101    0  3.2794340000E+02  1.5311670364E+02  8.6882877523E+01  3.7221295376E+02  1.5000000000E+00 0. 9.
      -3    1    3    0    0  102 -6.5355196466E+01 -3.2569923688E+01  3.1451225546E+02  3.2287816660E+02  5.0000000000E-01 0. 9.
 1000022    1    4    0    0    0 -2.5077862007E+02 -2.9886473551E+01 -8.2097336472E+01  2.9521886251E+02  1.2896157000E+02 0. 9.
     -24    2    4    0    0    0 -2.8267848820E+02 -1.9520501971E+01  7.6449220707E+01  3.0430549952E+02  8.0431188000E+01 0. 9.
 1000022    1    5    0    0    0  2.2988615558E+02 -8.3838604923E+01  3.5643468561E+01  2.7888725247E+02  1.2896157000E+02 0. 9.
     -24    2    5    0    0    0  4.0982749162E+01  1.2698800490E+01 -6.2211244692E+01  1.1036421627E+02  8.0431188000E+01 0. 9.
      15    1    9    0    0    0 -1.1343793647E+01  6.6468703870E+00 -1.1828135189E+01  1.7774280613E+01  1.7770000000E+00 0. 9.
     -16    1    9    0    0    0 -2.7133469456E+02 -2.6167372358E+01  8.8277355896E+01  2.8653121891E+02  0.0000000000E+00 0. 9.
      15    1   11    0    0    0  3.3808138923E+01  5.9309292673E+00  1.1310712152E+01  3.6183644341E+01  1.7770000000E+00 0. 9.
     -16    1   11    0    0    0  7.1746102394E+00  6.7678712230E+00 -7.3521956844E+01  7.4180571926E+01  0.0000000000E+00 0. 9.
</event>
<event>
    12   230  1.000000E+00  2.785280E+02  7.861837E-03  1.084101E-01
       2   -1    0    0  101    0  0.0000000000E+00  0.0000000000E+00  6.4853972676E+02  6.4853972676E+02  0.0000000000E+00 0. 9.
      -1   -1    0    0    0  101  0.0000000000E+00  0.0000000000E+00 -1.2626919175E+02  1.2626919175E+02  0.0000000000E+00 0. 9.
 1000024    2    1    2    0    0  6.0024040776E+01  4.0413904781E+01  3.5010115224E+02  4.4742262999E+02  2.6903535800E+02 0. 9.
 1000023    2    1    2    0    0 -6.0024040776E+01 -4.0413904781E+01  1.7216938277E+02  3.2738628852E+02  2.6889276000E+02 0. 9.
 1000022    1    3    0    0    0  4.5041535190E+01  9.6608908685E+01  2.7902634149E+02  3.2534413613E+02  1.2896157000E+02 0. 9.
      24    2    3    0    0    0  1.4982505587E+01 -5.6195003904E+01  7.1074810754E+01  1.2207849386E+02  8.0431188000E+01 0. 9.
 1000022    1    4    0    0    0 -9.1717654185E+00  1.3752063826E+01  6.5100657758E+01  1.4540434216E+02  1.2896157000E+02 0. 9.
      25    2    4    0    0    0 -5.0852275358E+01 -5.4165968607E+01  1.0706872501E+02  1.8198194637E+02  1.2701893900E+02 0. 9.
      -1    1    6    0    0  102  1.3930381691E+01 -6.7874861663E+01  8.1083882369E+01  1.0665719507E+02  3.3000000000E-01 0. 9.
       2    1    6    0  102    0  1.0521238956E+00  1.1679857760E+01 -1.0009071614E+01  1.5421298796E+01  3.3000000000E-01 0. 9.
     -15    1    8    0    0    0 -1.6207502390E+01 -2.8648758752E+01  1.2935747942E+02  1.3349138445E+02  1.7770000000E+00 0. 9.
      15    1    8    0    0    0 -3.4644772968E+01 -2.5517209856E+01 -2.2288754411E+01  4.8490561917E+01  1.7770000000E+00 0. 9.
</event>
<event>
    12   230  1.000000E+00  2.882683E+02  7.864897E-03  1.079194E-01
      -2   -1    0    0    0  101  0.0000000000E+00  0.0000000000E+00  1.0437092456E+03  1.0437092456E+03  0.0000000000E+00 0. 9.
       1   -1    0    0  101    0  0.0000000000E+00  0.0000000000E+00 -9.1781026108E+01  9.1781026108E+01  0.0000000000E+00 0. 9.
-1000024    2    1    2    0    0  8.3622486083E+01  6.1353051273E+01  6.8273467574E+02  7.4112318706E+02  2.6903535800E+02 0. 9.
 1000023    2    1    2    0    0 -8.3622486083E+01 -6.1353051273E+01  2.6919354375E+02  3.9436708465E+02  2.6889276000E+02 0. 9.
 1000022    1    3    0    0    0 -2.2511511026E+01  7.8814150339E+01  3.9718219937E+02  4.2556224510E+02  1.2896157000E+02 0. 9.
     -24    2    3    0    0    0  1.0613399711E+02 -1.7461099067E+01  2.8555247637E+02  3.1556094196E+02  8.0431188000E+01 0. 9.
 1000022    1    4    0    0    0 -1.6296711616E+01  9.6948471614E-01  1.0202831890E+02  1.6524946930E+02  1.2896157000E+02 0. 9.
      25    2    4    0    0    0 -6.7325774466E+01 -6.2322535989E+01  1.6716522485E+02  2.2911761535E+02  1.2701893900E+02 0. 9.
       1    1    6    0  102    0  2.2483120528E+01 -1.2709053032E+01  1.0245397052E+01  2.7786467901E+01  3.3000000000E-01 0. 9.
      -2    1    6    0    0  102  8.3650876581E+01 -4.7520460345E+00  2.7530707932E+02  2.8777447406E+02  3.3000000000E-01 0. 9.
       5    1    8    0  103    0 -4.7532499053E+01 -2.0153017457E+00 -2.5230725642E+00  4.7883251795E+01  4.8000000000E+00 0. 9.
      -5    1    8    0    0  103 -1.9793275414E+01 -6.0307234243E+01  1.6968829741E+02  1.8123436355E+02  4.8000000000E+00 0. 9.
</event>
<event>
    24   259  1.000000E+00  9.740615E+02  7.974840E-03  9.300723E-02
       2   -1    0    0  101    0  0.0000000000E+00  0.0000000000E+00  1.3398843093E+03  1.3398843093E+03  0.0000000000E+00 0. 9.
      21   -1    0    0  102  101  0.0000000000E+00  0.0000000000E+00 -7.6396668623E+02  7.6396668623E+02  0.0000000000E+00 0. 9.
 2000002    2    1    2  103    0 -2.0750127192E+02 -2.0064688178E+02  5.9516447669E+02  1.1917259175E+03  9.9129912700E+02 0. 9.
 1000021    2    1    2  102  103  2.0750127192E+02  2.0064688178E+02 -1.9246853635E+01  9.1212507798E+02  8.6503512500E+02 0. 9.
 1000021    2    3    0  103  104 -2.4584284161E+02 -2.5633301368E+02  4.6341219313E+02  1.0436388000E+03  8.6503512500E+02 0. 9.
       2    1    3    0  104    0  3.8341569683E+01  5.5686131899E+01  1.3175228356E+02  1.4808711752E+02  3.3000000000E-01 0. 9.
 1000023    2    4    0    0    0 -1.8698274629E+02  1.3230147900E+02 -1.3317703903E+02  3.7749923028E+02  2.6889276000E+02 0. 9.
       1    1    4    0  102    0  1.3077963247E+02  1.5708879055E+01 -1.2001628613E+02  1.7819679847E+02  3.3000000000E-01 0. 9.
      -1    1    4    0    0  103  2.6370438575E+02  5.2636523725E+01  2.3394647152E+02  3.5642904923E+02  3.3000000000E-01 0. 9.
 1000024    2    5    0    0    0 -8.8861434864E+01  1.7010847320E-01  2.0070395656E+02  3.4721533027E+02  2.6903535800E+02 0. 9.
      -6    2    5    0    0  104 -9.8266641648E+01 -2.3501531560E+02 -1.0344264252E+02  3.2494176666E+02  1.7320000000E+02 0. 9.
       5    1    5    0  103    0 -5.8714765095E+01 -2.1487806555E+01  3.6615087909E+02  3.7148170309E+02  4.8000000000E+00 0. 9.
 1000022    1    7    0    0    0 -1.3597736356E+02  8.2332852404E+01 -1.0108946586E+02  2.2829522253E+02  1.2896157000E+02 0. 9.
      25    2    7    0    0    0 -5.1005382731E+01  4.9968626598E+01 -3.2087573169E+01  1.4920400775E+02  1.2701893900E+02 0. 9.
 1000022    1   10    0    0    0 -8.7542100528E+01  1.4268369185E+01  3.1962151707E+01  1.5974940189E+02  1.2896157000E+02 0. 9.
      24    2   10    0    0    0 -1.3193343364E+00 -1.4098260712E+01  1.6874180485E+02  1.8746592839E+02  8.0431188000E+01 0. 9.
     -24    2   11    0    0    0 -1.4994689630E+01 -1.9638439346E+02 -4.9742652039E+01  2.1848381667E+02  8.0431188000E+01 0. 9.
      -5    1   11    0    0  104 -8.3271952019E+01 -3.8630922142E+01 -5.3699990479E+01  1.0645794999E+02  4.8000000000E+00 0. 9.
       5    1   14    0  105    0 -8.4815374240E+01  6.1064481990E+01 -5.9468120446E+00  1.0478990048E+02  4.8000000000E+00 0. 9.
      -5    1   14    0    0  105  3.3809991509E+01 -1.1095855392E+01 -2.6140761124E+01  4.4414107273E+01  4.8000000000E+00 0. 9.
     -11    1   16    0    0    0  3.3185849920E+01  9.6005490528E+00  4.4335154220E+01  5.6205667659E+01  5.1000000000E-04 0. 9.
      12    1   16    0    0    0 -3.4505184257E+01 -2.3698809765E+01  1.2440665063E+02  1.3126026073E+02  0.0000000000E+00 0. 9.
       1    1   17    0  106    0  1.5400999619E+01 -1.7469087155E+02 -3.9548179087E+01  1.7977279761E+02  3.3000000000E-01 0. 9.
      -2    1   17    0    0  106 -3.0395689249E+01 -2.1693521911E+01 -1.0194472953E+01  3.8711019059E+01  3.3000000000E-01 0. 9.
</event>
<event>
    20   259  1.000000E+00  9.765878E+02  7.975078E-03  9.297990E-02
      21   -1    0    0  101  102  0.0000000000E+00  0.0000000000E+00  1.0624427682E+03  1.0624427682E+03  0.0000000000E+00 0. 9.
       2   -1    0    0  102    0  0.0000000000E+00  0.0000000000E+00 -1.3189619519E+03  1.3189619519E+03  0.0000000000E+00 0. 9.
 1000021    2    1    2  101  103 -2.8411674509E+02 -8.6726972710E+01  5.5188609809E+02  1.0682265328E+03  8.6503512500E+02 0. 9.
 2000002    2    1    2  103    0  2.8411674509E+02  8.6726972710E+01 -8.0840528183E+02  1.3131781873E+03  9.9129912700E+02 0. 9.
 1000023    2    3    0    0    0  4.5192385841E+01 -5.6544326079E+01  3.7660003953E+02  4.6837006598E+02  2.6889276000E+02 0. 9.
       4    1    3    0  101    0 -2.3044067017E+02 -2.2573279189E+02  5.4708367772E+00  3.2263040132E+02  1.5000000000E+00 0. 9.
      -4    1    3    0    0  103 -9.8868460759E+01  1.9555014526E+02  1.6981522178E+02  2.7722606550E+02  1.5000000000E+00 0. 9.
 1000021    2    4    0  103  104  1.8623288387E+02 -1.1868731006E+01 -6.2636656600E+02  1.0841791348E+03  8.6503512500E+02 0. 9.
       2    1    4    0  104    0  9.7883861222E+01  9.8595703716E+01 -1.8203871583E+02  2.2899905249E+02  3.3000000000E-01 0. 9.
 1000022    1    5    0    0    0  6.2827563596E+01 -4.0156556445E+01  1.9234120340E+02  2.4328188760E+02  1.2896157000E+02 0. 9.
      25    2    5    0    0    0 -1.7635177755E+01 -1.6387769635E+01  1.8425883613E+02  2.2508817838E+02  1.2701893900E+02 0. 9.
 1000024    2    8    0    0    0 -2.4429251234E+02 -9.3075711354E+01 -3.5857810396E+02  5.1894142263E+02  2.6903535800E+02 0. 9.
      -2    1    8    0    0  104  1.4882734402E+02  1.4530120427E+02 -1.2879011074E+02  2.4464059315E+02  3.3000000000E-01 0. 9.
       1    1    8    0  103    0  2.8169805219E+02 -6.4094223925E+01 -1.3899835130E+02  3.2059711900E+02  3.3000000000E-01 0. 9.
     -15    1   11    0    0    0 -1.8766100982E+01  2.0798197126E+01  1.8570516727E+02  1.8781453200E+02  1.7770000000E+00 0. 9.
      15    1   11    0    0    0  1.1309232270E+00 -3.7185966761E+01 -1.4463311438E+00  3.7273646375E+01  1.7770000000E+00 0. 9.
 1000022    1   12    0    0    0 -2.4724538668E+02 -6.7269487493E+01 -2.4420264541E+02  3.7672467897E+02  1.2896157000E+02 0. 9.
      24    2   12    0    0    0  2.9528743367E+00 -2.5806223861E+01 -1.1437545855E+02  1.4221674367E+02  8.0431188000E+01 0. 9.
      -3    1   18    0    0  105  2.1911288720E+01 -4.2034756579E+01 -1.0554506329E+02  1.1570235832E+02  5.0000000000E-01 0. 9.
       4    1   18    0  105    0 -1.8958414384E+01  1.6228532718E+01 -8.8303952590E+00  2.6514385351E+01  1.5000000000E+00 0. 9.
</event>
<event>
    12   230  1.000000E+00  2.801453E+02  7.862352E-03  1.083272E-01
      -2   -1    0    0    0  101  0.0000000000E+00  0.0000000000E+00  3.5399231712E+02  3.5399231712E+02  0.0000000000E+00 0. 9.
       1   -1    0    0  101    0  0.0000000000E+00  0.0000000000E+00 -2.2871689998E+02  2.2871689998E+02  0.0000000000E+00 0. 9.
-1000024    2    1    2    0    0 -7.7959828376E+01 -7.8744676055E+00  1.1367140735E+02  3.0239205476E+02  2.6903535800E+02 0. 9.
 1000023    2    1    2    0    0  7.7959828376E+01  7.8744676055E+00  1.1604009789E+01  2.8031716234E+02  2.6889276000E+02 0. 9.
 1000022    1    3    0    0    0  1.1292701193E+01 -5.0713435616E+01  1.0558364705E+02  1.7458055651E+02  1.2896157000E+02 0. 9.
     -24    2    3    0    0    0 -8.9252529569E+01  4.2838968011E+01  8.0877603014E+00  1.2781149825E+02  8.0431188000E+01 0. 9.
 1000022    1    4    0    0    0 -8.4462383701E-01  1.1360400290E+01  1.7729940238E+01  1.3067214471E+02  1.2896157000E+02 0. 9.
      25    2    4    0    0    0  7.8804452213E+01 -3.4859326842E+00 -6.1259304493E+00  1.4964501764E+02  1.2701893900E+02 0. 9.
      13    1    6    0    0    0  2.5290903756E+00 -5.3664039867E+00 -1.9623590974E+01  2.0501001844E+01  1.0566000000E-01 0. 9.
     -14    1    6    0    0    0 -9.1781619944E+01  4.8205371997E+01  2.7711351275E+01  1.0731049640E+02  0.0000000000E+00 0. 9.
       5    1    8    0  102    0  4.8061662770E+01 -5.1960891092E+00  5.9609265081E+01  7.6897511363E+01  4.8000000000E+00 0. 9.
      -5    1    8    0    0  102  3.0742789443E+01  1.7101564250E+00 -6.5735195531E+01  7.2747506275E+01  4.8000000000E+00 0. 9.
</event>
<event>
    17   258  1.000000E+00  9.324051E+02  7.970841E-03  9.347086E-02
       2   -1    0    0  101    0  0.0000000000E+00  0.0000000000E+00  8.9039309233E+02  8.9039309233E+02  0.0000000000E+00 0. 9.
      21   -1    0    0  102  101  0.0000000000E+00  0.0000000000E+00 -1.1302803144E+03  1.1302803144E+03  0.0000000000E+00 0. 9.
 1000002    2    1    2  103    0 -6.0512993958E+01  5.6749194704E+00  2.5048041880E+02  1.0244604687E+03  9.9150632100E+02 0. 9.
 1000021    2    1    2  102  103  6.0512993958E+01 -5.6749194704E+00 -4.9036764084E+02  9.9621293799E+02  8.6503512500E+02 0. 9.
 1000024    2    3    0    0    0 -2.5407542488E+02  1.5053269736E+02 -2.4816397266E+02  4.7029756079E+02  2.6903535800E+02 0. 9.
       1    1    3    0  103    0  1.9356243092E+02 -1.4485777789E+02  4.9864439146E+02  5.5416290792E+02  3.3000000000E-01 0. 9.
-1000024    2    4    0    0    0  3.4692910292E+02  1.5409352516E+02 -2.5561071615E+02  5.3086860805E+02  2.6903535800E+02 0. 9.
       2    1    4    0  102    0 -1.4658514811E+02  1.1367228548E+01 -1.8935114141E+02  2.3972981288E+02  3.3000000000E-01 0. 9.
      -1    1    4    0    0  103 -1.3983096086E+02 -1.7113567318E+02 -4.5405783279E+01  2.2561451705E+02  3.3000000000E-01 0. 9.
 1000022    1    5    0    0    0 -1.5268501425E+02  6.1844940347E+01 -4.5669715623E+01  2.1413621759E+02  1.2896157000E+02 0. 9.
      24    2    5    0    0    0 -1.0139041063E+02  8.8687757013E+01 -2.0249425703E+02  2.5616134319E+02  8.0431188000E+01 0. 9.
 1000022    1    7    0    0    0  1.3941601707E+02  9.8741129485E+01 -2.0422418650E+02  2.9584665176E+02  1.2896157000E+02 0. 9.
     -24    2    7    0    0    0  2.0751308586E+02  5.5352395677E+01 -5.1386529646E+01  2.3502195630E+02  8.0431188000E+01 0. 9.
      -1    1   11    0    0  104  8.3306299646E+00  3.0046277717E+01 -2.8348239252E+01  4.2141544454E+01  3.3000000000E-01 0. 9.
       2    1   11    0  104    0 -1.0972104059E+02  5.8641479296E+01 -1.7414601778E+02  2.1401979874E+02  3.3000000000E-01 0. 9.
      15    1   13    0    0    0  9.2851741492E+01  6.0542627352E+01 -4.2514352740E+00  1.1094182284E+02  1.7770000000E+00 0. 9.
     -16    1   13    0    0    0  1.1466134436E+02 -5.1902316743E+00 -4.7135094372E+01  1.2408013345E+02  0.0000000000E+00 0. 9.
</event>
<event>
    20   258  1.000000E+00  9.600267E+02  7.973512E-03  9.316067E-02
      21   -1    0    0  101  102  0.0000000000E+00  0.0000000000E+00  1.8199769116E+03  1.8199769116E+03  0.0000000000E+00 0. 9.
       2   -1    0    0  102    0  0.0000000000E+00  0.0000000000E+00 -9.3656058412E+02  9.3656058412E+02  0.0000000000E+00 0. 9.
 1000021    2    1    2  101  103 -9.6370731050E+01  2.1605226174E+02  1.3617670283E+03  1.6305401266E+03  8.6503512500E+02 0. 9.
 1000002    2    1    2  103    0  9.6370731050E+01 -2.1605226174E+02 -4.7835070086E+02  1.1259973691E+03  9.9150632100E+02 0. 9.
 1000023    2    3    0    0    0 -2.4209056402E+02  2.6470168961E+02  1.0422190901E+03  1.1345478279E+03  2.6889276000E+02 0. 9.
       5    1    3    0  101    0  3.7227410680E+01 -1.8780899383E+02  2.2592695724E+02  2.9618259280E+02  4.8000000000E+00 0. 9.
      -5    1    3    0    0  103  1.0849242229E+02  1.3915956596E+02  9.3620980949E+01  1.9980970588E+02  4.8000000000E+00 0. 9.
 1000021    2    4    0  103  104  3.5082275403E+00 -2.7513181049E+02 -4.0684322050E+02  9.9474468802E+02  8.6503512500E+02 0. 9.
       2    1    4    0  104    0  9.2862503510E+01  5.9079548755E+01 -7.1507480362E+01  1.3125268107E+02  3.3000000000E-01 0. 9.
 1000022    1    5    0    0    0 -1.0227725878E+02  9.6831740946E+01  5.3062856657E+02  5.6394572959E+02  1.2896157000E+02 0. 9.
      25    2    5    0    0    0 -1.3981330523E+02  1.6786994867E+02  5.1159052353E+02  5.7060209833E+02  1.2701893900E+02 0. 9.
 1000024    2    8    0    0    0 -4.1953436334E+01 -7.4036262513E+01 -7.1031884473E+01  2.9097596370E+02  2.6903535800E+02 0. 9.
      -2    1    8    0    0  104 -8.4146532701E+01  1.3612825436E+02  5.7186644701E+01  1.6994693829E+02  3.3000000000E-01 0. 9.
       1    1    8    0  103    0  1.2960819658E+02 -3.3722380235E+02 -3.9299798072E+02  5.3382178603E+02  3.3000000000E-01 0. 9.
       5    1   11    0  105    0 -7.3492539704E+01  1.0927950905E+02  4.3141397819E+02  4.5109225782E+02  4.8000000000E+00 0. 9.
      -5    1   11    0    0  105 -6.6320765529E+01  5.8590439619E+01  8.0176545343E+01  1.1950984051E+02  4.8000000000E+00 0. 9.
 1000022    1   12    0    0    0 -2.7023878453E+01  4.1498293713E+01 -1.5897999783E+01  1.3905477813E+02  1.2896157000E+02 0. 9.
      24    2   12    0    0    0 -1.4929557881E+01 -1.1553455623E+02 -5.5133884690E+01  1.5192118557E+02  8.0431188000E+01 0. 9.
     -15    1   18    0    0    0  1.1234106159E+01  1.9332501934E-01 -2.7981541500E+01  3.0205411924E+01  1.7770000000E+00 0. 9.
      16    1   18    0    0    0 -2.6163664040E+01 -1.1572788125E+02 -2.7152343190E+01  1.2171577365E+02  0.0000000000E+00 0. 9.
</event>
<event>
    16   259  1.000000E+00  1.413708E+03  8.009092E-03  8.923497E-02
      21   -1    0    0  101  102  0.0000000000E+00  0.0000000000E+00  9.0974737920E+02  9.0974737920E+02  0.0000000000E+00 0. 9.
       2   -1    0    0  102    0  0.0000000000E+00  0.0000000000E+00 -2.2408653710E+03  2.2408653710E+03  0.0000000000E+00 0. 9.
 1000021    2    1    2  101  103  1.4588092536E+02 -1.0544234842E+03 -4.2103027510E+02  1.4347969851E+03  8.6503512500E+02 0. 9.
 2000002    2    1    2  103    0 -1.4588092536E+02  1.0544234842E+03 -9.1008771671E+02  1.7158157651E+03  9.9129912700E+02 0. 9.
 1000022    1    3    0    0    0  1.9380064993E+02 -6.5635611794E+02  8.2875536144E+01  7.0132837280E+02  1.2896157000E+02 0. 9.
       3    1    3    0  101    0 -1.7064823189E+02 -1.4213067595E+02 -1.0968648793E+02  2.4769603091E+02  5.0000000000E-01 0. 9.
      -3    1    3    0    0  103  1.2272850732E+02 -2.5593669034E+02 -3.9421932332E+02  4.8577258141E+02  5.0000000000E-01 0. 9.
 1000021    2    4    0  103  104 -1.7397614199E+02  7.7907078358E+02 -7.1550899746E+02  1.3774824415E+03  8.6503512500E+02 0. 9.
       2    1    4    0  104    0  2.8095216630E+01  2.7535270064E+02 -1.9457871926E+02  3.3833332356E+02  3.3000000000E-01 0. 9.
 1000024    2    8    0    0    0 -8.1629820043E+01  4.1569926369E+02 -2.8213907420E+02  5.7571849579E+02  2.6903535800E+02 0. 9.
      -2    1    8    0    0  104  4.3377728758E+01  4.8795894263E+02 -3.2754409175E+02  5.8929686745E+02  3.3000000000E-01 0. 9.
       1    1    8    0  103    0 -1.3572405071E+02 -1.2458742274E+02 -1.0582583151E+02  2.1246707829E+02  3.3000000000E-01 0. 9.
 1000022    1   10    0    0    0  3.8974052071E+01  1.9800966622E+02 -1.1854258513E+02  2.6722693666E+02  1.2896157000E+02 0. 9.
      24    2   10    0    0    0 -1.2060387211E+02  2.1768959747E+02 -1.6359648908E+02  3.0849155914E+02  8.0431188000E+01 0. 9.
      -3    1   14    0    0  105 -1.2458953472E+02  1.5774099252E+02 -1.1834417675E+02  2.3326029892E+02  5.0000000000E-01 0. 9.
       4    1   14    0  105    0  3.9856626073E+00  5.9948604957E+01 -4.5252312323E+01  7.5231260213E+01  1.5000000000E+00 0. 9.
</event>
<event>
    10   254  1.000000E+00  8.716849E+02  7.964686E-03  9.419429E-02
      21   -1    0    0  101  102  0.0000000000E+00  0.0000000000E+00  9.9826154013E+02  9.9826154013E+02  0.0000000000E+00 0. 9.
       2   -1    0    0  102    0  0.0000000000E+00  0.0000000000E+00 -7.2633872618E+02  7.2633872618E+02  0.0000000000E+00 0. 9.
 1000024    2    1    2    0    0 -1.7214655422E+02 -4.4684987100E+02 -1.0338800534E+02  5.5890817389E+02  2.6903535800E+02 0. 9.
 1000001    2    1    2  101    0  1.7214655422E+02  4.4684987100E+02  3.7531081929E+02  1.1656920924E+03  9.9431916400E+02 0. 9.
 1000022    1    3    0    0    0 -1.1614835636E+02 -2.0489316828E+02 -1.2652035168E+02  2.9683351735E+02  1.2896157000E+02 0. 9.
      24    2    3    0    0    0 -5.5998197854E+01 -2.4195670272E+02  2.3132346340E+01  2.6207465655E+02  8.0431188000E+01 0. 9.
 1000022    1    4    0    0    0  5.8182915695E+02  2.9972575632E+02  1.9996239579E+02  6.9640271620E+02  1.2896157000E+02 0. 9.
       1    1    4    0  101    0 -4.0968260273E+02  1.4712411469E+02  1.7534842350E+02  4.6928937621E+02  3.3000000000E-01 0. 9.
     -13    1    6    0    0    0 -4.5859671249E+01 -2.1350448789E+02  4.7244160974E+01  2.2342626906E+02  1.0566000000E-01 0. 9.
      14    1    6    0    0    0 -1.0138526605E+01 -2.8452214836E+01 -2.4111814634E+01  3.8648387492E+01  0.0000000000E+00 0. 9.
</event>
<event>
    20   258  1.000000E+00  1.042853E+03  7.981093E-03  9.229247E-02
      21   -1    0    0  101  102  0.0000000000E+00  0.0000000000E+00  1.2458456845E+03  1.2458456845E+03  0.0000000000E+00 0. 9.
      -1   -1    0    0    0  101  0.0000000000E+00  0.0000000000E+00 -8.9552102816E+02  8.9552102816E+02  0.0000000000E+00 0. 9.
 1000021    2    1    2  103  102  3.7076028623E+02 -2.8566059831E+02 -1.3821023211E+01  9.8363710556E+02  8.6503512500E+02 0. 9.
-1000001    2    1    2    0  103 -3.7076028623E+02  2.8566059831E+02  3.6414567952E+02  1.1577296071E+03  9.9431916400E+02 0. 9.
 1000024    2    3    0    0    0  2.0799642227E+02  5.9032519289E+01 -2.8854303197E+02  4.4987159853E+02  2.6903535800E+02 0. 9.
      -4    1    3    0    0  102  1.9118668123E+02 -3.6088666793E+02  2.0547759422E+02  4.5718139277E+02  1.5000000000E+00 0. 9.
       3    1    3    0  103    0 -2.8422817268E+01  1.6193550323E+01  6.9244414534E+01  7.6584114265E+01  5.0000000000E-01 0. 9.
 1000021    2    4    0  104  103 -2.2652639095E+02  1.6708238115E+02  3.3137416316E+02  9.6815563386E+02  8.6503512500E+02 0. 9.
      -1    1    4    0    0  104 -1.4423389528E+02  1.1857821716E+02  3.2771516359E+01  1.8957397320E+02  3.3000000000E-01 0. 9.
 1000022    1    5    0    0    0  1.8362094600E+02  2.9773256942E+01 -2.8061780982E+02  3.6052814087E+02  1.2896157000E+02 0. 9.
      24    2    5    0    0    0  2.4375476267E+01  2.9259262347E+01 -7.9252221533E+00  8.9343457654E+01  8.0431188000E+01 0. 9.
-1000024    2    8    0    0    0 -4.2438445154E+02  1.5257931240E+02  7.5430587382E+01  5.3052088239E+02  2.6903535800E+02 0. 9.
       2    1    8    0  104    0  8.0906697712E+01 -1.1838265709E+02  2.1080544784E+02  2.5494978520E+02  3.3000000000E-01 0. 9.
      -1    1    8    0    0  103  1.1695136288E+02  1.3288572584E+02  4.5138127937E+01  1.8268496628E+02  3.3000000000E-01 0. 9.
     -13    1   11    0    0    0  5.2499685657E+01  2.7719608204E+01  2.2089900308E+00  5.9409464515E+01  1.0566000000E-01 0. 9.
      14    1   11    0    0    0 -2.8124209389E+01  1.5396541428E+00 -1.0134212184E+01  2.9933993139E+01  0.0000000000E+00 0. 9.
 1000022    1   12    0    0    0 -1.9413245092E+02  5.8083907098E+01  1.1444805898E+02  2.6606501743E+02  1.2896157000E+02 0. 9.
     -24    2   12    0    0    0 -2.3025200062E+02  9.4495405303E+01 -3.9017471594E+01  2.6445586495E+02  8.0431188000E+01 0. 9.
       3    1   18    0  105    0 -4.8526412848E+01  7.1545626976E+00 -3.9252486126E+01  6.2825219286E+01  5.0000000000E-01 0. 9.
      -4    1   18    0    0  105 -1.8172558778E+02  8.7340842606E+01  2.3501453252E-01  2.0163064567E+02  1.5000000000E+00 0. 9.
</event>
<event>
    24   258  1.000000E+00  1.184710E+03  7.992806E-03  9.098569E-02
       2   -1    0    0  101    0  0.0000000000E+00  0.0000000000E+00  6.7658852062E+02  6.7658852062E+02  0.0000000000E+00 0. 9.
      21   -1    0    0  102  101  0.0000000000E+00  0.0000000000E+00 -2.2558541418E+03  2.2558541418E+03  0.0000000000E+00 0. 9.
 1000002    2    1    2  103    0  9.9613115012E+01  7.2658796698E+02 -4.0039283143E+02  1.2966310387E+03  9.9150632100E+02 0. 9.
 1000021    2    1    2  102  103 -9.9613115012E+01 -7.2658796698E+02 -1.1788727898E+03  1.6358116238E+03  8.6503512500E+02 0. 9.
 1000021    2    3    0  103  104  9.1596722615E+01  5.6094261218E+02 -2.3290920941E+02  1.0609330992E+03  8.6503512500E+02 0. 9.
       2    1    3    0  104    0  8.0163923972E+00  1.6564535480E+02 -1.6748362202E+02  2.3569793945E+02  3.3000000000E-01 0. 9.
 1000024    2    4    0    0    0 -2.2910405649E+02 -9.2969362428E+01 -7.8928186242E+02  8.6975735309E+02  2.6903535800E+02 0. 9.
      -4    1    4    0    0  103  8.3579396330E+00 -3.5543645770E+02 -1.9336417344E+02  4.0471827755E+02  1.5000000000E+00 0. 9.
       3    1    4    0  102    0  1.2113300185E+02 -2.7818214685E+02 -1.9622675393E+02  3.6133599312E+02  5.0000000000E-01 0. 9.
 1000024    2    5    0    0    0 -3.6480484491E+01  4.2637001863E+01  1.1667766869E+02  2.9856731553E+02  2.6903535800E+02 0. 9.
      -6    2    5    0    0  104  5.2232756710E+00  2.3241164715E+02 -3.4565693102E+02  4.5113125618E+02  1.7320000000E+02 0. 9.
       5    1    5    0  103    0  1.2285393144E+02  2.8589396316E+02 -3.9299470807E+00  3.1123452753E+02  4.8000000000E+00 0. 9.
 1000022    1    7    0    0    0 -8.7090348963E+01 -9.3070746717E+01 -5.5774897766E+02  5.8648265225E+02  1.2896157000E+02 0. 9.
      24    2    7    0    0    0 -1.4201370753E+02  1.0138428839E-01 -2.3153288477E+02  2.8327470084E+02  8.0431188000E+01 0. 9.
 1000022    1   10    0    0    0  5.3507359704E+01  7.1687745710E+00  9.9510908411E+01  1.7160401015E+02  1.2896157000E+02 0. 9.
      24    2   10    0    0    0 -8.9987844196E+01  3.5468227292E+01  1.7166760283E+01  1.2696330538E+02  8.0431188000E+01 0. 9.
     -24    2   11    0    0    0  5.1367385619E+00  5.7975716754E+01 -2.0209434584E+02  2.2516409670E+02  8.0431188000E+01 0. 9.
      -5    1   11    0    0  104  8.6537109048E-02  1.7443593040E+02 -1.4356258518E+02  2.2596715948E+02  4.8000000000E+00 0. 9.
      -3    1   14    0    0  105  8.2062800525E+00  3.9798185685E+00 -3.3231600166E+01  3.4464057187E+01  5.0000000000E-01 0. 9.
       4    1   14    0  105    0 -1.5021998758E+02 -3.8784342801E+00 -1.9830128460E+02  2.4881064365E+02  1.5000000000E+00 0. 9.
      -3    1   16    0    0  106 -6.3519319370E+01  6.1493864708E+01  1.5624588045E+01  8.9780716647E+01  5.0000000000E-01 0. 9.
       4    1   16    0  106    0 -2.6468524825E+01 -2.6025637417E+01  1.5421722375E+00  3.7182588729E+01  1.5000000000E+00 0. 9.
       1    1   17    0  107    0  1.2812175436E+01  7.7251200532E+01 -1.5333831479E+02  1.7217621062E+02  3.3000000000E-01 0. 9.
      -2    1   17    0    0  107 -7.6754368737E+00 -1.9275483778E+01 -4.8756031059E+01  5.2987886075E+01  3.3000000000E-01 0. 9.
</event>
<event>
    18   243  1.000000E+00  1.127237E+03  7.988235E-03  9.149080E-02
      -2   -1    0    0    0  101  0.0000000000E+00  0.0000000000E+00  7.2195900926E+02  7.2195900926E+02  0.0000000000E+00 0. 9.
       2   -1    0    0  102    0  0.0000000000E+00  0.0000000000E+00 -1.9699433024E+03  1.9699433024E+03  0.0000000000E+00 0. 9.
 1000021    2    1    2  103  101 -5.3888778887E+02  4.8164063983E+02 -1.8462153630E+02  1.1422559407E+03  8.6503512500E+02 0. 9.
 1000021    2    1    2  102  103  5.3888778887E+02 -4.8164063983E+02 -1.0633627569E+03  1.5496463710E+03  8.6503512500E+02 0. 9.
 1000024    2    3    0    0    0 -1.2050732689E+02  8.4450842245E+01  3.9738247595E+01  3.0921370080E+02  2.6903535800E+02 0. 9.
      -6    2    3    0    0  101 -2.4477605556E+01  1.8856557626E+02 -2.8416778074E+02  3.8328279029E+02  1.7320000000E+02 0. 9.
       5    1    3    0  103    0 -3.9390285643E+02  2.0862422133E+02  5.9807996844E+01  4.4975944961E+02  4.8000000000E+00 0. 9.
 1000022    1    4    0    0    0  2.9289380286E+02 -2.7654870948E+02 -3.0944688882E+02  5.2407483436E+02  1.2896157000E+02 0. 9.
       2    1    4    0  102    0  8.3468136224E+01  2.1765671228E+02 -3.3845903917E+02  4.1096959044E+02  3.3000000000E-01 0. 9.
      -2    1    4    0    0  103  1.6252584978E+02 -4.2274864264E+02 -4.1545682888E+02  6.1460194619E+02  3.3000000000E-01 0. 9.
 1000022    1    5    0    0    0 -6.9132552461E+01  7.7991819611E+01  1.0237982020E+02  1.9487110575E+02  1.2896157000E+02 0. 9.
      24    2    5    0    0    0 -5.1374774425E+01  6.4590226337E+00 -6.2641572610E+01  1.1434259505E+02  8.0431188000E+01 0. 9.
     -24    2    6    0    0    0 -2.0939213620E+01  1.6204265518E+01 -8.9600830148E+01  1.2328225198E+02  8.0431188000E+01 0. 9.
      -5    1    6    0    0  101 -3.5383919353E+00  1.7236131074E+02 -1.9456695059E+02  2.6000053831E+02  4.8000000000E+00 0. 9.
      -3    1   12    0    0  104 -1.3392343498E+00 -2.2768972626E+01  6.8771045400E+00  2.3827803716E+01  5.0000000000E-01 0. 9.
       4    1   12    0  104    0 -5.0035540075E+01  2.9227995260E+01 -6.9518677150E+01  9.0514791333E+01  1.5000000000E+00 0. 9.
       3    1   13    0  105    0  1.7729534552E+01 -2.1515513427E+01 -1.6583026644E+01  3.2442263887E+01  5.0000000000E-01 0. 9.
      -4    1   13    0    0  105 -3.8668748172E+01  3.7719778945E+01 -7.3017803505E+01  9.0839988097E+01  1.5000000000E+00 0. 9.
</event>
<event>
    26   272  1.000000E+00  1.046141E+03  7.981382E-03  9.225977E-02
       2   -1    0    0  101    0  0.0000000000E+00  0.0000000000E+00  5.7142514775E+02  5.7142514775E+02  0.0000000000E+00 0. 9.
       2   -1    0    0  102    0  0.0000000000E+00  0.0000000000E+00 -2.1470476117E+03  2.1470476117E+03  0.0000000000E+00 0. 9.
 2000002    2    1    2  101    0  3.2160722423E+02  9.1132930272E+01 -1.2344410438E+03  1.6181023044E+03  9.9129912700E+02 0. 9.
 2000002    2    1    2  102    0 -3.2160722423E+02 -9.1132930272E+01 -3.4118142009E+02  1.1003704550E+03  9.9129912700E+02 0. 9.
 1000021    2    3    0  101  103  2.7768935294E+02  1.5539589981E+02 -9.5180653770E+02  1.3249455517E+03  8.6503512500E+02 0. 9.
       2    1    3    0  103    0  4.3917871295E+01 -6.4262969542E+01 -2.8263450614E+02  2.9315675267E+02  3.3000000000E-01 0. 9.
 1000021    2    4    0  102  104 -3.8717282819E+02 -1.8064545229E+01 -3.1278715565E+02  9.9817368173E+02  8.6503512500E+02 0. 9.
       2    1    4    0  104    0  6.5565603959E+01 -7.3068385043E+01 -2.8394264443E+01  1.0219677328E+02  3.3000000000E-01 0. 9.
 1000024    2    5    0    0    0  3.5112067757E+02  2.1840477112E+02 -8.0834461006E+02  9.4698859905E+02  2.6903535800E+02 0. 9.
      -4    1    5    0    0  103  1.2176617256E+02 -4.6469773854E+01 -1.2599415686E+02  1.8128215087E+02  1.5000000000E+00 0. 9.
       3    1    5    0  101    0 -1.9519749720E+02 -1.6539097455E+01 -1.7467770774E+01  1.9667480182E+02  5.0000000000E-01 0. 9.
 1000024    2    7    0    0    0 -1.3986884694E+02  1.9205549387E+02 -3.7644518802E+01  3.6089574772E+02  2.6903535800E+02 0. 9.
      -6    2    7    0    0  104 -2.1512999642E+02  2.9134520717E+00 -3.1411738635E+02  4.1827906470E+02  1.7320000000E+02 0. 9.
       5    1    7    0  102    0 -3.2173984828E+01 -2.1303349117E+02  3.8974749500E+01  2.1899886931E+02  4.8000000000E+00 0. 9.
 1000022    1    9    0    0    0  2.7511225422E+02  7.8248828612E+01 -4.8584669546E+02  5.7834914164E+02  1.2896157000E+02 0. 9.
      24    2    9    0    0    0  7.6008423350E+01  1.4015594251E+02 -3.2249791460E+02  3.6863945742E+02  8.0431188000E+01 0. 9.
 1000022    1   12    0    0    0 -1.6084341532E+02  9.6346081687E+01  3.5989158439E+00  2.2759000514E+02  1.2896157000E+02 0. 9.
      24    2   12    0    0    0  2.0974568378E+01  9.5709412187E+01 -4.1243434646E+01  1.3330574258E+02  8.0431188000E+01 0. 9.
     -24    2   13    0    0    0 -2.6203890225E+01 -1.5568623868E+01 -1.0709580695E+02  1.3735979682E+02  8.0431188000E+01 0. 9.
      -5    1   13    0    0  104 -1.8892610620E+02  1.8482075940E+01 -2.0702157940E+02  2.8091926789E+02  4.8000000000E+00 0. 9.
     -13    1   16    0    0    0  1.7424963115E+01  1.1186181136E+02 -1.9421753565E+02  2.2480470747E+02  1.0566000000E-01 0. 9.
      14    1   16    0    0    0  5.8583460234E+01  2.8294131150E+01 -1.2828037894E+02  1.4383474995E+02  0.0000000000E+00 0. 9.
      -3    1   18    0    0  105  1.1548675321E+01 -1.2658438872E+01 -5.3305485775E-01  1.7150572114E+01  5.0000000000E-01 0. 9.
       4    1   18    0  105    0  9.4258930576E+00  1.0836785106E+02 -4.0710379788E+01  1.1615517046E+02  1.5000000000E+00 0. 9.
       1    1   19    0  106    0 -3.3814338613E+01  1.1405905577E+01 -1.0303149761E+02  1.0903716145E+02  3.3000000000E-01 0. 9.
      -2    1   19    0    0  106  7.6104483884E+00 -2.6974529445E+01 -4.0643093385E+00  2.8322635362E+01  3.3000000000E-01 0. 9.
</event>
<event>
    17   258  1.000000E+00  1.006995E+03  7.977886E-03  9.265758E-02
       2   -1    0    0  101    0  0.0000000000E+00  0.0000000000E+00  1.5170185619E+03  1.5170185619E+03  0.0000000000E+00 0. 9.
      21   -1    0    0  102  101  0.0000000000E+00  0.0000000000E+00 -6.6981474829E+02  6.6981474829E+02  0.0000000000E+00 0. 9.
 1000002    2    1    2  103    0 -2.6432239627E+02  2.8015702404E+02  3.6782752036E+02  1.1254937390E+03  9.9150632100E+02 0. 9.
 1000021    2    1    2  102  103  2.6432239627E+02 -2.8015702404E+02  4.7937629324E+02  1.0613395712E+03  8.6503512500E+02 0. 9.
 1000024    2    3    0    0    0 -3.5193158293E+02 -2.6116714640E+02  1.5265582508E+02  5.3642142222E+02  2.6903535800E+02 0. 9.
       1    1    3    0  103    0  8.7609186664E+01  5.4132417044E+02  2.1517169528E+02  5.8907231682E+02  3.3000000000E-01 0. 9.
 1000023    2    4    0    0    0 -1.6381693523E+02 -5.0784741157E+01  1.0815095860E+01  3.1911653182E+02  2.6889276000E+02 0. 9.
       1    1    4    0  102    0  3.3514936047E+02 -2.0535662028E+02  5.0461691487E+02  6.3963643970E+02  3.3000000000E-01 0. 9.
      -1    1    4    0    0  103  9.2989971021E+01 -2.4015662604E+01 -3.6055717490E+01  1.0258659963E+02  3.3000000000E-01 0. 9.
 1000022    1    5    0    0    0 -1.2231023198E+02 -1.3746116447E+02  1.3670737961E+02  2.6301208862E+02  1.2896157000E+02 0. 9.
      24    2    5    0    0    0 -2.2962135095E+02 -1.2370598193E+02  1.5948445471E+01  2.7340933359E+02  8.0431188000E+01 0. 9.
 1000022    1    7    0    0    0 -5.6144056958E+01 -4.1115627949E+01  3.4774981530E+01  1.5060888377E+02  1.2896157000E+02 0. 9.
      25    2    7    0    0    0 -1.0767287827E+02 -9.6691132076E+00 -2.3959885670E+01  1.6850764805E+02  1.2701893900E+02 0. 9.
      -1    1   11    0    0  104 -1.5731151854E+02 -6.8685407899E+01  4.5993209126E+01  1.7770785944E+02  3.3000000000E-01 0. 9.
       2    1   11    0  104    0 -7.2309832418E+01 -5.5020574033E+01 -3.0044763655E+01  9.5701474150E+01  3.3000000000E-01 0. 9.
       5    1   13    0  105    0 -1.2797055356E+02 -3.3818014598E+01 -3.0542404721E+01  1.3592644767E+02  4.8000000000E+00 0. 9.
      -5    1   13    0    0  105  2.0297675297E+01  2.4148901391E+01  6.5825190506E+00  3.2581200375E+01  4.8000000000E+00 0. 9.
</event>
<event>
    12   226  1.000000E+00  3.108488E+02  7.871618E-03  1.068582E-01
      -1   -1    0    0    0  101  0.0000000000E+00  0.0000000000E+00  6.1624843450E+02  6.1624843450E+02  0.0000000000E+00 0. 9.
       1   -1    0    0  101    0  0.0000000000E+00  0.0000000000E+00 -1.6450736008E+02  1.6450736008E+02  0.0000000000E+00 0. 9.
 1000024    2    1    2    0    0  2.1460825222E+01  1.5422844797E+02  1.4136607511E+02  3.4148407317E+02  2.6903535800E+02 0. 9.
-1000024    2    1    2    0    0 -2.1460825222E+01 -1.5422844797E+02  3.1037499931E+02  4.3927172141E+02  2.6903535800E+02 0. 9.
 1000022    1    3    0    0    0 -4.7043952450E+01  2.1277561884E+01  8.3501722395E+01  1.6207866078E+02  1.2896157000E+02 0. 9.
      24    2    3    0    0    0  6.8504777673E+01  1.3295088609E+02  5.7864352718E+01  1.7940541239E+02  8.0431188000E+01 0. 9.
 1000022    1    4    0    0    0 -1.7424776908E+00 -4.1359849792E+01  2.5497830659E+02  2.8871906202E+02  1.2896157000E+02 0. 9.
     -24    2    4    0    0    0 -1.9718347532E+01 -1.1286859818E+02  5.5396692718E+01  1.5055265940E+02  8.0431188000E+01 0. 9.
      -1    1    6    0    0  102  7.3123487037E+01  1.4013541668E+02  4.5838462372E+01  1.6457901718E+02  3.3000000000E-01 0. 9.
       4    1    6    0  102    0 -4.6187093644E+00 -7.1845305952E+00  1.2025890346E+01  1.4826395202E+01  1.5000000000E+00 0. 9.
      11    1    8    0    0    0 -3.7443062141E+01 -3.9660430308E+01  5.1679164877E+01  7.5137665105E+01  5.1000000000E-04 0. 9.
     -12    1    8    0    0    0  1.7724714609E+01 -7.3208167869E+01  3.7175278413E+00  7.5414994291E+01  0.0000000000E+00 0. 9.
</event>
<event>
    12   226  1.000000E+00  3.129425E+02  7.872217E-03  1.067648E-01
      -1   -1    0    0    0  101  0.0000000000E+00  0.0000000000E+00  1.0328804161E+02  1.0328804161E+02  0.0000000000E+00 0. 9.
       1   -1    0    0  101    0  0.0000000000E+00  0.0000000000E+00 -9.7727571493E+02  9.7727571493E+02  0.0000000000E+00 0. 9.
 1000024    2    1    2    0    0 -1.8260775052E+01  1.5880666651E+02 -3.4372953052E+02  4.6484731605E+02  2.6903535800E+02 0. 9.
-1000024    2    1    2    0    0  1.8260775052E+01 -1.5880666651E+02 -5.3025814280E+02  6.1571644050E+02  2.6903535800E+02 0. 9.
 1000022    1    3    0    0    0  1.7367774234E+01  9.6437900896E+01 -8.1508776448E+01  1.8131926397E+02  1.2896157000E+02 0. 9.
      24    2    3    0    0    0 -3.5628549286E+01  6.2368765615E+01 -2.6222075407E+02  2.8352805208E+02  8.0431188000E+01 0. 9.
 1000022    1    4    0    0    0  9.1054625117E+01 -6.9892211964E+01 -2.8818556620E+02  3.3594325883E+02  1.2896157000E+02 0. 9.
     -24    2    4    0    0    0 -7.2793850065E+01 -8.8914454547E+01 -2.4207257660E+02  2.7977318167E+02  8.0431188000E+01 0. 9.
     -15    1    6    0    0    0  1.4928967371E+01 -4.0375728043E-02 -1.1362091338E+02  1.1461127948E+02  1.7770000000E+00 0. 9.
      16    1    6    0    0    0 -5.0557516658E+01  6.2409141343E+01 -1.4859984069E+02  1.6891677260E+02  0.0000000000E+00 0. 9.
      13    1    8    0    0    0 -5.8878167555E+01 -2.2533555659E+01 -1.6749790061E+02  1.7896915270E+02  1.0566000000E-01 0. 9.
     -14    1    8    0    0    0 -1.3915682510E+01 -6.6380898888E+01 -7.4574675994E+01  1.0080402897E+02  0.0000000000E+00 0. 9.
</event>
<event>
    19   273  1.000000E+00  1.300052E+03  8.001360E-03  9.005680E-02
       2   -1    0    0  101    0  0.0000000000E+00  0.0000000000E+00  1.3775005106E+03  1.3775005106E+03  0.0000000000E+00 0. 9.
       2   -1    0    0  102    0  0.0000000000E+00  0.0000000000E+00 -1.2568069265E+03  1.2568069265E+03  0.0000000000E+00 0. 9.
 2000002    2    1    2  101    0  4.7232411726E+02  6.9582073945E+02 -1.4264135185E+02  1.3077756259E+03  9.9129912700E+02 0. 9.
 1000002    2    1    2  102    0 -4.7232411726E+02 -6.9582073945E+02  2.6333493598E+02  1.3265318113E+03  9.9150632100E+02 0. 9.
 1000021    2    3    0  101  103  4.9938287160E+02  6.5693292392E+02 -2.2143208079E+02  1.2158380044E+03  8.6503512500E+02 0. 9.
       2    1    3    0  103    0 -2.7058754337E+01  3.8887815523E+01  7.8790728937E+01  9.1937621509E+01  3.3000000000E-01 0. 9.
 1000024    2    4    0    0    0  6.7212240523E+01 -6.6823223774E+02 -4.5942978977E+00  7.2350047703E+02  2.6903535800E+02 0. 9.
       1    1    4    0  102    0 -5.3953635778E+02 -2.7588501703E+01  2.6792923388E+02  6.0303133423E+02  3.3000000000E-01 0. 9.
 1000023    2    5    0    0    0  2.7928193911E+02  6.5730022511E+02  8.4717028483E+01  7.6780354176E+02  2.6889276000E+02 0. 9.
       3    1    5    0  101    0 -2.7307214576E+01 -6.1881748465E+01 -3.6157975978E+01  7.6698657014E+01  5.0000000000E-01 0. 9.
      -3    1    5    0    0  103  2.4740814707E+02  6.1514447276E+01 -2.6999113330E+02  3.7133580559E+02  5.0000000000E-01 0. 9.
 1000022    1    7    0    0    0  1.1691346599E+02 -3.5480861189E+02 -2.0514112114E+01  3.9573959232E+02  1.2896157000E+02 0. 9.
      24    2    7    0    0    0 -4.9701225463E+01 -3.1342362586E+02  1.5919814216E+01  3.2776088471E+02  8.0431188000E+01 0. 9.
 1000022    1    9    0    0    0  6.0701421933E+01  2.0340479822E+02  5.8459308296E+01  2.5516024735E+02  1.2896157000E+02 0. 9.
      23    2    9    0    0    0  2.1858051717E+02  4.5389542690E+02  2.6257720187E+01  5.1264329441E+02  9.1187600000E+01 0. 9.
      -3    1   13    0    0  104 -6.8754166552E+01 -2.3448968582E+02  2.6772470945E+01  2.4582425302E+02  5.0000000000E-01 0. 9.
       4    1   13    0  104    0  1.9052941090E+01 -7.8933940039E+01 -1.0852656729E+01  8.1936631688E+01  1.5000000000E+00 0. 9.
       5    1   15    0  105    0  1.0433515956E+02  1.3082805770E+02  2.9148135982E+01  1.6992486585E+02  4.8000000000E+00 0. 9.
      -5    1   15    0    0  105  1.1424535761E+02  3.2306736920E+02 -2.8904157945E+00  3.4271842857E+02  4.8000000000E+00 0. 9.
</event>
<event>
    15   276  1.000000E+00  1.141580E+03  7.989397E-03  9.136184E-02
       2   -1    0    0  101    0  0.0000000000E+00  0.0000000000E+00  1.3903078087E+03  1.3903078087E+03  0.0000000000E+00 0. 9.
      -3   -1    0    0    0  101  0.0000000000E+00  0.0000000000E+00 -1.0932506967E+03  1.0932506967E+03  0.0000000000E+00 0. 9.
 2000002    2    1    2  102    0 -1.2286131071E+02  5.4994307863E+02  6.1731472009E+02  1.2966432486E+03  9.9129912700E+02 0. 9.
-1000003    2    1    2    0  102  1.2286131071E+02 -5.4994307863E+02 -3.2025760811E+02  1.1869152568E+03  9.9431916400E+02 0. 9.
 1000021    2    3    0  102  103 -2.6782983844E+01  5.5577440676E+02  4.9630305320E+02  1.1420179541E+03  8.6503512500E+02 0. 9.
       2    1    3    0  103    0 -9.6078326865E+01 -5.8313281286E+00  1.2101166689E+02  1.5462529452E+02  3.3000000000E-01 0. 9.
 1000024    2    4    0    0    0 -1.9552108830E+02 -7.1184620434E+02 -2.2002613187E+02  8.1593200524E+02  2.6903535800E+02 0. 9.
      -4    1    4    0    0  102  3.1838239901E+02  1.6190312572E+02 -1.0023147623E+02  3.7098325157E+02  1.5000000000E+00 0. 9.
 1000022    1    5    0    0    0 -1.6139803511E+02  2.0556421738E+02 -9.9664718979E+01  3.0800992833E+02  1.2896157000E+02 0. 9.
       2    1    5    0  102    0  2.4556309709E+02  2.5659862874E+02  5.9008224333E+02  6.8872436701E+02  3.3000000000E-01 0. 9.
      -2    1    5    0    0  103 -1.1094804582E+02  9.3611560643E+01  5.8855288519E+00  1.4528365878E+02  3.3000000000E-01 0. 9.
 1000022    1    7    0    0    0 -6.3821230701E+01 -2.1231028588E+02 -2.4131199418E+01  2.5760863398E+02  1.2896157000E+02 0. 9.
      24    2    7    0    0    0 -1.3169985760E+02 -4.9953591847E+02 -1.9589493246E+02  5.5832337126E+02  8.0431188000E+01 0. 9.
      -3    1   13    0    0  104  3.6741952533E+00 -5.3000258126E+01 -2.3911482256E+00  5.3183593917E+01  5.0000000000E-01 0. 9.
       4    1   13    0  104    0 -1.3537405286E+02 -4.4653566034E+02 -1.9350378423E+02  5.0513977734E+02  1.5000000000E+00 0. 9.
</event>
<event>
    11   241  1.000000E+00  8.029632E+02  7.957194E-03  9.509180E-02
      -1   -1    0    0    0  101  0.0000000000E+00  0.0000000000E+00  1.0626646560E+03  1.0626646560E+03  0.0000000000E+00 0. 9.
       2   -1    0    0  102    0  0.0000000000E+00  0.0000000000E+00 -5.6175014867E+02  5.6175014867E+02  0.0000000000E+00 0. 9.
 1000021    2    1    2  102  101 -1.5363640209E+02  4.5914357527E+02  3.1526493743E+02  1.0402378166E+03  8.6503512500E+02 0. 9.
 1000024    2    1    2    0    0  1.5363640209E+02 -4.5914357527E+02  1.8564956987E+02  5.8417698808E+02  2.6903535800E+02 0. 9.
 1000022    1    3    0    0    0  6.1202135261E+01  5.5981085657E+01  4.9807308436E+02  5.2114054459E+02  1.2896157000E+02 0. 9.
       4    1    3    0  102    0  2.6681929237E+00  1.1785569360E+02 -3.3258775365E+00  1.1794233857E+02  1.5000000000E+00 0. 9.
      -4    1    3    0    0  101 -2.1750673028E+02  2.8530679601E+02 -1.7948226939E+02  4.0115493340E+02  1.5000000000E+00 0. 9.
 1000022    1    4    0    0    0  2.0882727511E+01 -2.9517171151E+02  1.4867191651E+02  3.5538268511E+02  1.2896157000E+02 0. 9.
      24    2    4    0    0    0  1.3275367458E+02 -1.6397186376E+02  3.6977653361E+01  2.2879430297E+02  8.0431188000E+01 0. 9.
      -1    1    9    0    0  103  1.1494194168E+02 -8.1644193624E+01  3.0956847798E+01  1.4434631840E+02  3.3000000000E-01 0. 9.
       2    1    9    0  103    0  1.7811732908E+01 -8.2327670134E+01  6.0208055637E+00  8.4447984573E+01  3.3000000000E-01 0. 9.
</event>
<event>
    15   238  1.000000E+00  8.546442E+02  7.962883E-03  9.440852E-02
       1   -1    0    0  101    0  0.0000000000E+00  0.0000000000E+00  2.0110724954E+03  2.0110724954E+03  0.0000000000E+00 0. 9.
      -1   -1    0    0    0  102  0.0000000000E+00  0.0000000000E+00 -3.6114189568E+02  3.6114189568E+02  0.0000000000E+00 0. 9.
 1000023    2    1    2    0    0  1.5239696851E+02 -5.4488278436E+02  3.7192782107E+02  7.2852982449E+02  2.6889276000E+02 0. 9.
 1000021    2    1    2  101  102 -1.5239696851E+02  5.4488278436E+02  1.2780027786E+03  1.6436845666E+03  8.6503512500E+02 0. 9.
 1000022    1    3    0    0    0  1.0688972483E+02 -3.4656838938E+02  2.0317890910E+02  4.3525603664E+02  1.2896157000E+02 0. 9.
      25    2    3    0    0    0  4.5507243680E+01 -1.9831439498E+02  1.6874891197E+02  2.9327378785E+02  1.2701893900E+02 0. 9.
-1000024    2    4    0    0    0  6.0942382344E+01  3.8885078579E+02  6.6617057083E+02  8.1919604544E+02  2.6903535800E+02 0. 9.
       4    1    4    0  101    0  1.1930810941E+02 -5.7968399342E+01  2.7356740201E+02  3.0403311289E+02  1.5000000000E+00 0. 9.
      -3    1    4    0    0  102 -3.3264746026E+02  2.1400039791E+02  3.3826480578E+02  5.2045540823E+02  5.0000000000E-01 0. 9.
       5    1    6    0  103    0  5.2530629444E+01 -2.0658211723E+01  1.6110136888E+01  5.8896564008E+01  4.8000000000E+00 0. 9.
      -5    1    6    0    0  103 -7.0233857640E+00 -1.7765618326E+02  1.5263877508E+02  2.3437722384E+02  4.8000000000E+00 0. 9.
 1000022    1    7    0    0    0  2.0609012882E+01  3.5718131383E+02  5.0978794330E+02  6.3601733941E+02  1.2896157000E+02 0. 9.
     -24    2    7    0    0    0  4.0333369462E+01  3.1669471955E+01  1.5638262753E+02  1.8317870603E+02  8.0431188000E+01 0. 9.
      11    1   13    0    0    0  1.5001822645E+00 -4.6434094775E+00  1.1678479908E+02  1.1688670196E+02  5.1000000000E-04 0. 9.
     -12    1   13    0    0    0  3.8833187197E+01  3.6312881432E+01  3.9597828454E+01  6.6292004073E+01  0.0000000000E+00 0. 9.
</event>
<event>
    17   258  1.000000E+00  9.859715E+02  7.975953E-03  9.287913E-02
       2   -1    0    0  101    0  0.0000000000E+00  0.0000000000E+00  1.8189115116E+03  1.8189115116E+03  0.0000000000E+00 0. 9.
      21   -1    0    0  102  101  0.0000000000E+00  0.0000000000E+00 -5.3279195013E+02  5.3279195013E+02  0.0000000000E+00 0. 9.
 1000002    2    1    2  103    0  2.5758686811E+02  2.0025880352E+02  6.5484985121E+02  1.2322206358E+03  9.9150632100E+02 0. 9.
 1000021    2    1    2  102  103 -2.5758686811E+02 -2.0025880352E+02  6.3126971025E+02  1.1194828259E+03  8.6503512500E+02 0. 9.
 1000023    2    3    0    0    0 -2.1474437575E+01  4.8747021776E+02  1.3008814533E+02  5.7211415523E+02  2.6889276000E+02 0. 9.
       2    1    3    0  103    0  2.7906130568E+02 -2.8721141424E+02  5.2476170588E+02  6.6010648054E+02  3.3000000000E-01 0. 9.
 1000024    2    4    0    0    0 -2.1357371671E+01  9.5690323938E+01  8.0448746375E+00  2.8645683668E+02  2.6903535800E+02 0. 9.
      -2    1    4    0    0  103 -1.7285908673E+02 -3.6920720438E+02  6.1222900402E+02  7.3553972421E+02  3.3000000000E-01 0. 9.
       1    1    4    0  102    0 -6.3370409709E+01  7.3258076915E+01  1.0995831591E+01  9.7486265045E+01  3.3000000000E-01 0. 9.
 1000022    1    5    0    0    0 -4.3387734393E+00  1.7395781915E+02  7.3489692422E+01  2.2871809991E+02  1.2896157000E+02 0. 9.
      25    2    5    0    0    0 -1.7135664136E+01  3.1351239861E+02  5.6598452904E+01  3.4339605531E+02  1.2701893900E+02 0. 9.
 1000022    1    7    0    0    0  2.8272902573E+01  1.0763740056E+02  5.6644658602E+01  1.7951287114E+02  1.2896157000E+02 0. 9.
      24    2    7    0    0    0 -4.9630274244E+01 -1.1947076626E+01 -4.8599783964E+01  1.0694396554E+02  8.0431188000E+01 0. 9.
       5    1   11    0  104    0 -6.0020354817E+01  2.3467764588E+02  1.0781595054E+01  2.4251870703E+02  4.8000000000E+00 0. 9.
      -5    1   11    0    0  104  4.2884690681E+01  7.8834752731E+01  4.5816857850E+01  1.0087734828E+02  4.8000000000E+00 0. 9.
     -15    1   13    0    0    0 -1.7848929651E+01  3.3674961723E+01 -1.0602621756E+01  3.9600008255E+01  1.7770000000E+00 0. 9.
      16    1   13    0    0    0 -3.1781344593E+01 -4.5622038348E+01 -3.7997162209E+01  6.7343957287E+01  0.0000000000E+00 0. 9.
</event>
<event>
    13   259  1.000000E+00  1.032045E+03  7.980138E-03  9.240088E-02
      21   -1    0    0  101  102  0.0000000000E+00  0.0000000000E+00  1.2342000319E+03  1.2342000319E+03  0.0000000000E+00 0. 9.
       2   -1    0    0  102    0  0.0000000000E+00  0.0000000000E+00 -1.5691872950E+03  1.5691872950E+03  0.0000000000E+00 0. 9.
 1000021    2    1    2  101  103 -1.8801085641E+02  4.0532651195E+02  7.7884842415E+02  1.2468072420E+03  8.6503512500E+02 0. 9.
 2000002    2    1    2  103    0  1.8801085641E+02 -4.0532651195E+02 -1.1138356872E+03  1.5565800849E+03  9.9129912700E+02 0. 9.
-1000024    2    3    0    0    0 -1.7845475254E+02 -1.0624722056E+02  2.8885467809E+02  4.4603993038E+02  2.6903535800E+02 0. 9.
       4    1    3    0  101    0  2.5910012039E+01  5.0259843254E+00 -5.1834449130E+01  5.8186333094E+01  1.5000000000E+00 0. 9.
      -3    1    3    0    0  103 -3.5466115908E+01  5.0654774818E+02  5.4182819519E+02  7.4258097853E+02  5.0000000000E-01 0. 9.
 1000022    1    4    0    0    0  5.5212491071E+02 -3.7931348094E+02 -5.1296049491E+02  8.5351050944E+02  1.2896157000E+02 0. 9.
       2    1    4    0  103    0 -3.6411405430E+02 -2.6013031010E+01 -6.0087519231E+02  7.0306957547E+02  3.3000000000E-01 0. 9.
 1000022    1    5    0    0    0 -4.1330343284E+01 -7.1180550938E+01  2.2298979940E+02  2.7042633984E+02  1.2896157000E+02 0. 9.
     -24    2    5    0    0    0 -1.3712440926E+02 -3.5066669625E+01  6.5864878695E+01  1.7561359054E+02  8.0431188000E+01 0. 9.
      11    1   11    0    0    0 -2.5874798476E+00 -1.4898457812E+01 -1.1605229445E+01  1.9061491229E+01  5.1000000000E-04 0. 9.
     -12    1   11    0    0    0 -1.3453692941E+02 -2.0168211813E+01  7.7470108140E+01  1.5655209931E+02  0.0000000000E+00 0. 9.
</event>
<event>
    12   226  1.000000E+00  2.914653E+02  7.865879E-03  1.077629E-01
      -2   -1    0    0    0  101  0.0000000000E+00  0.0000000000E+00  2.1453495640E+02  2.1453495640E+02  0.0000000000E+00 0. 9.
       2   -1    0    0  101    0  0.0000000000E+00  0.0000000000E+00 -4.1810428673E+02  4.1810428673E+02  0.0000000000E+00 0. 9.
-1000024    2    1    2    0    0  4.0496552434E+01  1.0455630059E+02 -1.7454543708E+02  3.3973243032E+02  2.6903535800E+02 0. 9.
 1000024    2    1    2    0    0 -4.0496552434E+01 -1.0455630059E+02 -2.9023893253E+01  2.9290681280E+02  2.6903535800E+02 0. 9.
 1000022    1    3    0    0    0  4.3828770605E+01  1.4704151282E+02 -1.1878448534E+02  2.3298714154E+02  1.2896157000E+02 0. 9.
     -24    2    3    0    0    0 -3.3322181708E+00 -4.2485212230E+01 -5.5760951734E+01  1.0674528878E+02  8.0431188000E+01 0. 9.
 1000022    1    4    0    0    0 -1.5929239796E+01 -4.3188039951E+00 -7.9806126563E+01  1.5255325995E+02  1.2896157000E+02 0. 9.
      24    2    4    0    0    0 -2.4567312638E+01 -1.0023749660E+02  5.0782233311E+01  1.4035355285E+02  8.0431188000E+01 0. 9.
       3    1    6    0  102    0  1.5640814570E+01 -4.4478853384E+01 -6.8931013142E+01  8.3514897183E+01  5.0000000000E-01 0. 9.
      -4    1    6    0    0  102 -1.8973032741E+01  1.9936411531E+00  1.3170061408E+01  2.3230391601E+01  1.5000000000E+00 0. 9.
      -3    1    8    0    0  103 -1.1012491233E+01  7.4554268563E+00  2.5698812549E+01  2.8940237027E+01  5.0000000000E-01 0. 9.
       4    1    8    0  103    0 -1.3554821405E+01 -1.0769292345E+02  2.5083420762E+01  1.1141331582E+02  1.5000000000E+00 0. 9.
</event>
<event>
    12   230  1.000000E+00  3.163706E+02  7.873189E-03  1.066135E-01
      -1   -1    0    0    0  101  0.0000000000E+00  0.0000000000E+00  2.5464375887E+02  2.5464375887E+02  0.0000000000E+00 0. 9.
       2   -1    0    0  101    0  0.0000000000E+00  0.0000000000E+00 -7.0425519361E+02  7.0425519361E+02  0.0000000000E+00 0. 9.
 1000023    2    1    2    0    0  1.6648271046E+02 -5.6740969360E+00 -5.4349046637E+02  6.2883534544E+02  2.6889276000E+02 0. 9.
 1000024    2    1    2    0    0 -1.6648271046E+02  5.6740969360E+00  9.3879031639E+01  3.3006360704E+02  2.6903535800E+02 0. 9.
 1000022    1    3    0    0    0  1.1241218044E+02 -2.5828747614E+01 -2.5198635710E+02  3.0566621209E+02  1.2896157000E+02 0. 9.
      25    2    3    0    0    0  5.4070530016E+01  2.0154650678E+01 -2.9150410927E+02  3.2316913335E+02  1.2701893900E+02 0. 9.
 1000022    1    4    0    0    0 -1.3822021888E+02  6.5983041758E+01  1.0313720001E+02  2.2522646219E+02  1.2896157000E+02 0. 9.
      24    2    4    0    0    0 -2.8262491574E+01 -6.0308944822E+01 -9.2581683749E+00  1.0483714485E+02  8.0431188000E+01 0. 9.
       5    1    6    0  102    0  8.4738729636E+01  4.8260091612E+01 -2.0327041667E+02  2.2550297345E+02  4.8000000000E+00 0. 9.
      -5    1    6    0    0  102 -3.0668199620E+01 -2.8105440934E+01 -8.8233692604E+01  9.7666159895E+01  4.8000000000E+00 0. 9.
     -11    1    8    0    0    0 -1.8014172621E+00 -6.8043904656E+01  1.3130666409E+01  6.9322669204E+01  5.1000000000E-04 0. 9.
      12    1    8    0    0    0 -2.6461074312E+01  7.7349598348E+00 -2.2388834784E+01  3.5514475645E+01  0.0000000000E+00 0. 9.
</event>
<event>
    12   226  1.000000E+00  3.534128E+02  7.883083E-03  1.050996E-01
       1   -1    0    0  101    0  0.0000000000E+00  0.0000000000E+00  1.4962638812E+03  1.4962638812E+03  0.0000000000E+00 0. 9.
      -1   -1    0    0    0  101  0.0000000000E+00  0.0000000000E+00 -9.5698306049E+01  9.5698306049E+01  0.0000000000E+00 0. 9.
-1000024    2    1    2    0    0 -2.2153893493E+02  5.8660978835E+01  4.1580727219E+02  5.4570717568E+02  2.6903535800E+02 0. 9.
 1000024    2    1    2    0    0  2.2153893493E+02 -5.8660978835E+01  9.8475830296E+02  1.0462550116E+03  2.6903535800E+02 0. 9.
 1000022    1    3    0    0    0 -2.3327696443E+02  3.6137708591E+01  3.2137710749E+02  4.1909236198E+02  1.2896157000E+02 0. 9.
     -24    2    3    0    0    0  1.1738029502E+01  2.2523270245E+01  9.4430164693E+01  1.2661481369E+02  8.0431188000E+01 0. 9.
 1000022    1    4    0    0    0  2.0283618596E+02  1.1001953533E+01  7.5394395673E+02  7.9140769376E+02  1.2896157000E+02 0. 9.
      24    2    4    0    0    0  1.8702748972E+01 -6.9662932368E+01  2.3081434623E+02  2.5484731781E+02  8.0431188000E+01 0. 9.
       1    1    6    0  102    0  1.4171885811E+01 -1.5558902952E+01  8.4639750586E+01  8.7217647800E+01  3.3000000000E-01 0. 9.
      -2    1    6    0    0  102 -2.4338563089E+00  3.8082173197E+01  9.7904141076E+00  3.9397165892E+01  3.3000000000E-01 0. 9.
      -3    1    8    0    0  103 -1.2598914671E+00 -7.4823217187E+01  2.1808904774E+02  2.3057142906E+02  5.0000000000E-01 0. 9.
       4    1    8    0  103    0  1.9962640439E+01  5.1602848189E+00  1.2725298494E+01  2.4275888747E+01  1.5000000000E+00 0. 9.
</event>
<event>
    18   244  1.000000E+00  1.047949E+03  7.981540E-03  9.224184E-02
      21   -1    0    0  101  102  0.0000000000E+00  0.0000000000E+00  1.6678552846E+03  1.6678552846E+03  0.0000000000E+00 0. 9.
      21   -1    0    0  103  101  0.0000000000E+00  0.0000000000E+00 -1.3034948444E+03  1.3034948444E+03  0.0000000000E+00 0. 9.
 1000021    2    1    2  104  102  5.9054754377E+02 -3.4144871910E+01  1.2272959543E+03  1.6138318998E+03  8.6503512500E+02 0. 9.
 1000021    2    1    2  103  104 -5.9054754377E+02  3.4144871910E+01 -8.6293551412E+02  1.3575182292E+03  8.6503512500E+02 0. 9.
-1000024    2    3    0    0    0 -6.0625989936E+01  2.0676102892E+02  4.1961598224E+02  5.4303151855E+02  2.6903535800E+02 0. 9.
       2    1    3    0  104    0  9.7450975375E+01 -8.3526005622E-01  1.4242939000E+02  1.7257934493E+02  3.3000000000E-01 0. 9.
      -1    1    3    0    0  102  5.5372255833E+02 -2.4007064077E+02  6.6525058206E+02  8.9822103627E+02  3.3000000000E-01 0. 9.
-1000024    2    4    0    0    0 -2.0983955398E+02  2.3197126528E+02 -3.3833530744E+02  5.3356734387E+02  2.6903535800E+02 0. 9.
       2    1    4    0  103    0 -2.0135006000E+02 -3.2204940639E+02 -4.5974084249E+02  5.9633834186E+02  3.3000000000E-01 0. 9.
      -1    1    4    0    0  104 -1.7935792980E+02  1.2422301302E+02 -6.4859364186E+01  2.2761254352E+02  3.3000000000E-01 0. 9.
 1000022    1    5    0    0    0 -5.6388225353E+01  2.2842089611E+01  1.5122806565E+02  2.0785188812E+02  1.2896157000E+02 0. 9.
     -24    2    5    0    0    0 -4.2377645834E+00  1.8391893931E+02  2.6838791659E+02  3.3517963044E+02  8.0431188000E+01 0. 9.
 1000022    1    8    0    0    0 -2.0161392286E+02  1.3293834136E+02 -1.7026957262E+02  3.2240283869E+02  1.2896157000E+02 0. 9.
     -24    2    8    0    0    0 -8.2256311202E+00  9.9032923922E+01 -1.6806573482E+02  2.1116450518E+02  8.0431188000E+01 0. 9.
      11    1   12    0    0    0 -1.6300303701E+01  1.6048976978E+02  1.7439802385E+02  2.3756543694E+02  5.1000000000E-04 0. 9.
     -12    1   12    0    0    0  1.2062539118E+01  2.3429169527E+01  9.3989892745E+01  9.7614193501E+01  0.0000000000E+00 0. 9.
      13    1   14    0    0    0  6.1853858862E+00  1.1460146201E+01  7.0747089303E+00  1.4820817117E+01  1.0566000000E-01 0. 9.
     -14    1   14    0    0    0 -1.4411017006E+01  8.7572777721E+01 -1.7514044375E+02  1.9634368807E+02  0.0000000000E+00 0. 9.
</event>
<event>
    12   230  1.000000E+00  2.875053E+02  7.864661E-03  1.079571E-01
       2   -1    0    0  101    0  0.0000000000E+00  0.0000000000E+00  3.4985110091E+02  3.4985110091E+02  0.0000000000E+00 0. 9.
      -1   -1    0    0    0  101  0.0000000000E+00  0.0000000000E+00 -2.8942608427E+02  2.8942608427E+02  0.0000000000E+00 0. 9.
 1000024    2    1    2    0    0 -9.5601983916E+01  3.4320390409E+01 -1.0676492111E+02  3.0675136635E+02  2.6903535800E+02 0. 9.
 1000023    2    1    2    0    0  9.5601983916E+01 -3.4320390409E+01  1.6718993775E+02  3.3252581883E+02  2.6889276000E+02 0. 9.
 1000022    1    3    0    0    0  8.6050350956E-01 -1.6803189683E+00 -1.1905147352E+02  1.7552180440E+02  1.2896157000E+02 0. 9.
      24    2    3    0    0    0 -9.6462487425E+01  3.6000709377E+01  1.2286552411E+01  1.3122956195E+02  8.0431188000E+01 0. 9.
 1000022    1    4    0    0    0  1.2468106462E+01 -3.7009273020E+01  6.5784132777E+01  1.4994591902E+02  1.2896157000E+02 0. 9.
      25    2    4    0    0    0  8.3133877453E+01  2.6888826109E+00  1.0140580497E+02  1.8257989981E+02  1.2701893900E+02 0. 9.
      -1    1    6    0    0  102 -4.4125352568E+01  5.8715811152E+01  3.7990085476E+00  7.3546818996E+01  3.3000000000E-01 0. 9.
       2    1    6    0  102    0 -5.2337134857E+01 -2.2715101775E+01  8.4875438632E+00  5.7682742953E+01  3.3000000000E-01 0. 9.
       5    1    8    0  103    0 -9.1914578065E+00  4.7654247321E+01  2.7742833582E+01  5.6108065370E+01  4.8000000000E+00 0. 9.
      -5    1    8    0    0  103  9.2325335260E+01 -4.4965364710E+01  7.3662971385E+01  1.2647183444E+02  4.8000000000E+00 0. 9.
</event>
<event>
    22   276  1.000000E+00  1.018087E+03  7.978890E-03  9.254296E-02
      -4   -1    0    0    0  101  0.0000000000E+00  0.0000000000E+00  1.3621046900E+03  1.3621046900E+03  0.0000000000E+00 0. 9.
       1   -1    0    0  101    0  0.0000000000E+00  0.0000000000E+00 -7.7279410253E+02  7.7279410253E+02  0.0000000000E+00 0. 9.
-2000004    2    1    2    0  102  1.0641309273E+02  1.9875709230E+02  1.6210513988E+02  1.0294562466E+03  9.9129912700E+02 0. 9.
 1000001    2    1    2  102    0 -1.0641309273E+02 -1.9875709230E+02  4.2720544757E+02  1.1054425459E+03  9.9431916400E+02 0. 9.
 1000021    2    3    0  103  102  9.0061304893E+01  9.4472921517E+01  5.1176557314E+01  8.7632241729E+02  8.6503512500E+02 0. 9.
      -4    1    3    0    0  103  1.6351787838E+01  1.0428417078E+02  1.1092858257E+02  1.5313382929E+02  1.5000000000E+00 0. 9.
 1000021    2    4    0  102  104 -1.9353585023E+02 -1.6444442428E+02  3.0553332661E+02  9.5191095968E+02  8.6503512500E+02 0. 9.
       1    1    4    0  104    0  8.7122757501E+01 -3.4312668017E+01  1.2167212096E+02  1.5353158626E+02  3.3000000000E-01 0. 9.
 1000023    2    5    0    0    0  7.8157775065E+01 -2.7863864529E+02 -1.4355942683E+02  4.2031031139E+02  2.6889276000E+02 0. 9.
       1    1    5    0  103    0  5.0641233735E+01  2.0492415675E+02  2.2670700573E+01  2.1230288302E+02  3.3000000000E-01 0. 9.
      -1    1    5    0    0  102 -3.8737703907E+01  1.6818741005E+02  1.7206528357E+02  2.4370922288E+02  3.3000000000E-01 0. 9.
 1000024    2    7    0    0    0 -2.1155817628E+02 -2.2309749641E+02 -1.4426248608E+02  4.3326786587E+02  2.6903535800E+02 0. 9.
      -4    1    7    0    0  104  1.9587211580E+01  1.5559704260E+02  2.2966049147E+02  2.7810122234E+02  1.5000000000E+00 0. 9.
       3    1    7    0  102    0 -1.5648855351E+00 -9.6943970481E+01  2.2013532122E+02  2.4054187147E+02  5.0000000000E-01 0. 9.
 1000022    1    9    0    0    0  5.0411040824E+01 -1.9277732834E+02 -6.6513031887E+01  2.4649430279E+02  1.2896157000E+02 0. 9.
      25    2    9    0    0    0  2.7746734241E+01 -8.5861316946E+01 -7.7046394943E+01  1.7381600860E+02  1.2701893900E+02 0. 9.
 1000022    1   12    0    0    0 -1.4031424091E+02 -1.8597585873E+02 -1.7103447242E+02  3.1647904121E+02  1.2896157000E+02 0. 9.
      24    2   12    0    0    0 -7.1243935364E+01 -3.7121637679E+01  2.6771986339E+01  1.1678882466E+02  8.0431188000E+01 0. 9.
       5    1   16    0  105    0  6.6785979005E+01 -1.0130049637E+01 -5.0397615561E+01  8.4415309935E+01  4.8000000000E+00 0. 9.
      -5    1   16    0    0  105 -3.9039244764E+01 -7.5731267309E+01 -2.6648779383E+01  8.9400698669E+01  4.8000000000E+00 0. 9.
     -11    1   18    0    0    0  7.7402650756E+00 -1.0725167135E+01 -1.7922780488E+01  2.2274805818E+01  5.1000000000E-04 0. 9.
      12    1   18    0    0    0 -7.8984200440E+01 -2.6396470543E+01  4.4694766827E+01  9.4514018844E+01  0.0000000000E+00 0. 9.
</event>
<event>
    12   230  1.000000E+00  3.199579E+02  7.874196E-03  1.064573E-01
      -1   -1    0    0    0  101  0.0000000000E+00  0.0000000000E+00  2.3387575841E+02  2.3387575841E+02  0.0000000000E+00 0. 9.
       2   -1    0    0  101    0  0.0000000000E+00  0.0000000000E+00 -5.5839718883E+02  5.5839718883E+02  0.0000000000E+00 0. 9.
 1000023    2    1    2    0    0 -1.6010168515E+02  6.6323803751E+01 -3.4638970822E+02  4.7150879406E+02  2.6889276000E+02 0. 9.
 1000024    2    1    2    0    0  1.6010168515E+02 -6.6323803751E+01  2.1868277803E+01  3.2076415317E+02  2.6903535800E+02 0. 9.
 1000022    1    3    0    0    0 -8.0622379332E+01  4.5091644365E+01 -1.1874814460E+02  1.9815507267E+02  1.2896157000E+02 0. 9.
      25    2    3    0    0    0 -7.9479305822E+01  2.1232159385E+01 -2.2764156362E+02  2.7335372139E+02  1.2701893900E+02 0. 9.
 1000022    1    4    0    0    0  6.3025546761E+01 -9.6244804319E+01 -3.9685544201E+01  1.7731697848E+02  1.2896157000E+02 0. 9.
      24    2    4    0    0    0  9.7076138393E+01  2.9921000568E+01  6.1553822005E+01  1.4344717469E+02  8.0431188000E+01 0. 9.
       5    1    6    0  102    0 -1.7131087590E+01  5.9173037586E+01 -4.4498493931E+01  7.6145114757E+01  4.8000000000E+00 0. 9.
      -5    1    6    0    0  102 -6.2348218232E+01 -3.7940878200E+01 -1.8314306969E+02  1.9720860664E+02  4.8000000000E+00 0. 9.
     -15    1    8    0    0    0  9.3419837819E+00 -3.3435658123E+00  4.7516951263E+01  4.8574380898E+01  1.7770000000E+00 0. 9.
      16    1    8    0    0    0  8.7734154611E+01  3.3264566381E+01  1.4036870742E+01  9.4872793793E+01  0.0000000000E+00 0. 9.
</event>
<event>
    24   259  1.000000E+00  1.138844E+03  7.989176E-03  9.138629E-02
       2   -1    0    0  101    0  0.0000000000E+00  0.0000000000E+00  1.9201186997E+03  1.9201186997E+03  0.0000000000E+00 0. 9.
      21   -1    0    0  102  101  0.0000000000E+00  0.0000000000E+00 -8.5628934106E+02  8.5628934106E+02  0.0000000000E+00 0. 9.
 2000002    2    1    2  103    0  6.4816163938E+02  1.0663763292E+02  1.1907223349E+03  1.6828483988E+03  9.9129912700E+02 0. 9.
 1000021    2    1    2  102  103 -6.4816163938E+02 -1.0663763292E+02 -1.2689297623E+02  1.0935596419E+03  8.6503512500E+02 0. 9.
 1000021    2    3    0  103  104  5.8877840722E+02  1.9506982190E+02  1.1545696177E+03  1.5703595186E+03  8.6503512500E+02 0. 9.
       2    1    3    0  104    0  5.9383232162E+01 -8.8432188980E+01  3.6152717208E+01  1.1248888021E+02  3.3000000000E-01 0. 9.
-1000024    2    4    0    0    0 -1.3157962856E+02 -1.8151081967E+02 -2.5733711803E+02  4.3458231957E+02  2.6903535800E+02 0. 9.
       2    1    4    0  102    0 -4.1459660271E+02  1.3988884342E+02  2.3714442900E+02  4.9769149139E+02  3.3000000000E-01 0. 9.
      -1    1    4    0    0  103 -1.0198540811E+02 -6.5015656666E+01 -1.0670028720E+02  1.6128583096E+02  3.3000000000E-01 0. 9.
 1000024    2    5    0    0    0  1.2244959931E+02  1.4616472634E+02  4.0979314231E+02  5.2599284685E+02  2.6903535800E+02 0. 9.
      -6    2    5    0    0  104  3.5561674544E+02 -1.9231327976E+02  3.2174800034E+02  5.4494741300E+02  1.7320000000E+02 0. 9.
       5    1    5    0  103    0  1.1071206248E+02  2.4121837531E+02  4.2302847502E+02  4.9941925879E+02  4.8000000000E+00 0. 9.
 1000022    1    7    0    0    0 -7.1266390263E+01 -1.9944355843E+02 -1.7723872877E+02  3.0479712087E+02  1.2896157000E+02 0. 9.
     -24    2    7    0    0    0 -6.0313238298E+01  1.7932738766E+01 -8.0098389263E+01  1.2978519869E+02  8.0431188000E+01 0. 9.
 1000022    1   10    0    0    0  1.5924157955E+02  9.9841957276E+01  2.5756681353E+02  3.4394483142E+02  1.2896157000E+02 0. 9.
      24    2   10    0    0    0 -3.6791980248E+01  4.6322769068E+01  1.5222632877E+02  1.8204801542E+02  8.0431188000E+01 0. 9.
     -24    2   11    0    0    0  3.4824610286E+02 -1.9500530607E+02  3.3606428501E+02  5.2793067463E+02  8.0431188000E+01 0. 9.
      -5    1   11    0    0  104  7.3706425820E+00  2.6920263126E+00 -1.4316284674E+01  1.7016738365E+01  4.8000000000E+00 0. 9.
      11    1   14    0    0    0 -3.8885711526E+01  5.0059363895E+01 -4.6766906519E+01  7.8772977727E+01  5.1000000000E-04 0. 9.
     -12    1   14    0    0    0 -2.1427526772E+01 -3.2126625129E+01 -3.3331482745E+01  5.1012220964E+01  0.0000000000E+00 0. 9.
      -3    1   16    0    0  105 -9.7815002329E+00 -2.0771508232E+01  6.3754831739E+01  6.7764753899E+01  5.0000000000E-01 0. 9.
       4    1   16    0  105    0 -2.7010480016E+01  6.7094277300E+01  8.8471497036E+01  1.1428326153E+02  1.5000000000E+00 0. 9.
       1    1   17    0  106    0  3.3734644955E+02 -1.8150528835E+02  2.9548299093E+02  4.8379448483E+02  3.3000000000E-01 0. 9.
      -2    1   17    0    0  106  1.0899653308E+01 -1.3500017724E+01  4.0581294083E+01  4.4136189802E+01  3.3000000000E-01 0. 9.
</event>
<event>
    26   273  1.000000E+00  1.143986E+03  7.989590E-03  9.134040E-02
       2   -1    0    0  101    0  0.0000000000E+00  0.0000000000E+00  2.2772973752E+03  2.2772973752E+03  0.0000000000E+00 0. 9.
       2   -1    0    0  102    0  0.0000000000E+00  0.0000000000E+00 -7.7469959343E+02  7.7469959343E+02  0.0000000000E+00 0. 9.
 1000002    2    1    2  102    0 -4.0853837467E+02 -3.9864932409E+02  1.5267499670E+03  1.9078456787E+03  9.9150632100E+02 0. 9.
 2000002    2    1    2  101    0  4.0853837467E+02  3.9864932409E+02 -2.4152185232E+01  1.1441512900E+03  9.9129912700E+02 0. 9.
 1000021    2    3    0  102  103 -4.7261204416E+02 -4.2658977590E+02  1.4271656103E+03  1.7861770427E+03  8.6503512500E+02 0. 9.
       2    1    3    0  103    0  6.4073669490E+01  2.7940451811E+01  9.9584356751E+01  1.2166863597E+02  3.3000000000E-01 0. 9.
 1000021    2    4    0  101  104  2.4645278723E+02  3.8719481999E+02 -4.5222056676E+01  9.8030077367E+02  8.6503512500E+02 0. 9.
       2    1    4    0  104    0  1.6208558744E+02  1.1454504099E+01  2.1069871444E+01  1.6385051634E+02  3.3000000000E-01 0. 9.
 1000024    2    5    0    0    0 -3.1577812393E+02 -5.1491560996E+01  3.8568296516E+02  5.6876935385E+02  2.6903535800E+02 0. 9.
      -6    2    5    0    0  103 -2.7290661229E+02 -3.7520769823E+02  9.4290565659E+02  1.0650484276E+03  1.7320000000E+02 0. 9.
       5    1    5    0  102    0  1.1607269206E+02  1.0948332315E-01  9.8576988546E+01  1.5235926129E+02  4.8000000000E+00 0. 9.
 1000024    2    7    0    0    0  4.8262972026E+01 -4.3957885402E+00 -1.4510233199E+02  3.0948884960E+02  2.6903535800E+02 0. 9.
      -2    1    7    0    0  104 -1.1409967203E+02  6.9803031928E+01 -1.1237922049E+02  1.7470087727E+02  3.3000000000E-01 0. 9.
       1    1    7    0  101    0  3.1228948723E+02  3.2178757661E+02  2.1225949580E+02  4.9611104679E+02  3.3000000000E-01 0. 9.
 1000022    1    9    0    0    0 -6.6366764087E+01  7.8817744709E+00  1.7429593793E+02  2.2688505958E+02  1.2896157000E+02 0. 9.
      24    2    9    0    0    0 -2.4941135984E+02 -5.9373335467E+01  2.1138702723E+02  3.4188429427E+02  8.0431188000E+01 0. 9.
     -24    2   10    0    0    0 -1.6567160376E+02 -2.1050700983E+02  4.0371943144E+02  4.9114034329E+02  8.0431188000E+01 0. 9.
      -5    1   10    0    0  103 -1.0723500853E+02 -1.6470068840E+02  5.3918622515E+02  5.7390808428E+02  4.8000000000E+00 0. 9.
 1000022    1   12    0    0    0 -8.8863299567E+00 -1.3652893001E+01 -1.6331354056E+02  2.0872893287E+02  1.2896157000E+02 0. 9.
      24    2   12    0    0    0  5.7149301982E+01  9.2571044610E+00  1.8211208572E+01  1.0075991674E+02  8.0431188000E+01 0. 9.
     -13    1   16    0    0    0 -1.8750767326E+02 -6.6378842092E+01  1.2341315777E+02  2.3408566142E+02  1.0566000000E-01 0. 9.
      14    1   16    0    0    0 -6.1903686585E+01  7.0055066252E+00  8.7973869463E+01  1.0779863285E+02  0.0000000000E+00 0. 9.
       3    1   17    0  105    0 -1.0268929464E+02 -9.4872265732E+01  2.6657046675E+02  3.0100814239E+02  5.0000000000E-01 0. 9.
      -4    1   17    0    0  105 -6.2982309124E+01 -1.1563474410E+02  1.3714896469E+02  1.9013220090E+02  1.5000000000E+00 0. 9.
     -13    1   20    0    0    0  1.4859989095E+01 -3.4769830959E+01  1.0389627825E+01  3.9213721466E+01  1.0566000000E-01 0. 9.
      14    1   20    0    0    0  4.2289312887E+01  4.4026935420E+01  7.8215807471E+00  6.1546195271E+01  0.0000000000E+00 0. 9.
</event>
<event>
    13   259  1.000000E+00  1.118694E+03  7.987536E-03  9.156856E-02
      21   -1    0    0  101  102  0.0000000000E+00  0.0000000000E+00  7.2383315893E+02  7.2383315893E+02  0.0000000000E+00 0. 9.
       2   -1    0    0  102    0  0.0000000000E+00  0.0000000000E+00 -1.9573658558E+03  1.9573658558E+03  0.0000000000E+00 0. 9.
 1000021    2    1    2  101  103  5.7329858564E+02 -2.3942871994E+02 -1.2996317239E+02  1.0729275716E+03  8.6503512500E+02 0. 9.
 2000002    2    1    2  103    0 -5.7329858564E+02  2.3942871994E+02 -1.1035695244E+03  1.6082714431E+03  9.9129912700E+02 0. 9.
-1000024    2    3    0    0    0  5.1041328109E+02 -5.6598398037E+00 -1.8964874832E+02  6.0737173370E+02  2.6903535800E+02 0. 9.
       2    1    3    0  101    0 -1.2457406208E+02 -2.2433465203E+02 -2.8489963080E+01  2.5817923995E+02  3.3000000000E-01 0. 9.
      -1    1    3    0    0  103  1.8745936663E+02 -9.4342281001E+00  8.8175539004E+01  2.0737659795E+02  3.3000000000E-01 0. 9.
 1000022    1    4    0    0    0 -2.4517179294E+02 -3.7638053557E+02 -5.1483331517E+02  6.9530996294E+02  1.2896157000E+02 0. 9.
       2    1    4    0  103    0 -3.2812679270E+02  6.1580925551E+02 -5.8873620926E+02  9.1296148016E+02  3.3000000000E-01 0. 9.
 1000022    1    5    0    0    0  2.3305728246E+02 -3.0984435923E+01 -1.6852157785E+02  3.1671176315E+02  1.2896157000E+02 0. 9.
     -24    2    5    0    0    0  2.7735599863E+02  2.5324596120E+01 -2.1127170466E+01  2.9065997055E+02  8.0431188000E+01 0. 9.
      15    1   11    0    0    0  9.1864767862E+01  1.0310742743E+01  3.0799016174E+01  9.7453497200E+01  1.7770000000E+00 0. 9.
     -16    1   11    0    0    0  1.8549123076E+02  1.5013853377E+01 -5.1926186640E+01  1.9320647335E+02  0.0000000000E+00 0. 9.
</event>
<event>
    12   230  1.000000E+00  3.003796E+02  7.868564E-03  1.073377E-01
      -1   -1    0    0    0  101  0.0000000000E+00  0.0000000000E+00  2.8570974610E+02  2.8570974610E+02  0.0000000000E+00 0. 9.
       2   -1    0    0  101    0  0.0000000000E+00  0.0000000000E+00 -3.9493699317E+02  3.9493699317E+02  0.0000000000E+00 0. 9.
 1000023    2    1    2    0    0 -2.1485692288E+01 -1.3200235490E+02  9.7734304215E+01  3.1581888366E+02  2.6889276000E+02 0. 9.
 1000024    2    1    2    0    0  2.1485692288E+01  1.3200235490E+02 -2.0696155128E+02  3.6482785562E+02  2.6903535800E+02 0. 9.
 1000022    1    3    0    0    0 -4.2319790966E+01 -5.6661747600E+01  7.4510885373E+01  1.6487715707E+02  1.2896157000E+02 0. 9.
      25    2    3    0    0    0  2.0834098678E+01 -7.5340607303E+01  2.3223418841E+01  1.5094172658E+02  1.2701893900E+02 0. 9.
 1000022    1    4    0    0    0 -5.3133981381E+01  1.9622805000E+01 -7.4331987649E+01  1.5926269299E+02  1.2896157000E+02 0. 9.
      24    2    4    0    0    0  7.4619673669E+01  1.1237954990E+02 -1.3262956363E+02  2.0556516263E+02  8.0431188000E+01 0. 9.
       5    1    6    0  102    0  8.9476925640E+00 -1.1048283279E+02  1.0563209837E+01  1.1145016350E+02  4.8000000000E+00 0. 9.
      -5    1    6    0    0  102  1.1886406114E+01  3.5142225485E+01  1.2660209005E+01  3.9491563079E+01  4.8000000000E+00 0. 9.
      -1    1    8    0    0  103  6.0890965995E+01  7.8640499879E+01 -4.2138631086E+01  1.0801764250E+02  3.3000000000E-01 0. 9.
       2    1    8    0  103    0  1.3728707674E+01  3.3739050024E+01 -9.0490932546E+01  9.7547520132E+01  3.3000000000E-01 0. 9.
</event>
<event>
    12   230  1.000000E+00  2.912352E+02  7.865809E-03  1.077741E-01
      -1   -1    0    0    0  101  0.0000000000E+00  0.0000000000E+00  2.2439877810E+02  2.2439877810E+02  0.0000000000E+00 0. 9.
       2   -1    0    0  101    0  0.0000000000E+00  0.0000000000E+00 -3.7927447685E+02  3.7927447685E+02  0.0000000000E+00 0. 9.
 1000023    2    1    2    0    0 -2.9729900961E+01 -1.0766815494E+02 -9.5062724436E+01  3.0629485232E+02  2.6889276000E+02 0. 9.
 1000024    2    1    2    0    0  2.9729900961E+01  1.0766815494E+02 -5.9812974314E+01  2.9737840263E+02  2.6903535800E+02 0. 9.
 1000022    1    3    0    0    0  2.2189417869E+01 -6.3244087628E+01 -6.3737493730E+01  1.5870015605E+02  1.2896157000E+02 0. 9.
      25    2    3    0    0    0 -5.1919318830E+01 -4.4424067313E+01 -3.1325230706E+01  1.4759469627E+02  1.2701893900E+02 0. 9.
 1000022    1    4    0    0    0 -6.0637500953E+01  3.8942402800E+01 -4.9413340927E+00  1.4781380374E+02  1.2896157000E+02 0. 9.
      24    2    4    0    0    0  9.0367401914E+01  6.8725752141E+01 -5.4871640221E+01  1.4956459889E+02  8.0431188000E+01 0. 9.
       5    1    6    0  102    0  3.6500796314E+01 -3.3632073699E+01  7.2815736709E+00  5.0393311342E+01  4.8000000000E+00 0. 9.
      -5    1    6    0    0  102 -8.8420115144E+01 -1.0791993614E+01 -3.8606804377E+01  9.7201384931E+01  4.8000000000E+00 0. 9.
     -15    1    8    0    0    0  1.0115362046E+02  4.3753778356E+01 -3.4231157248E+01  1.1541827372E+02  1.7770000000E+00 0. 9.
      16    1    8    0    0    0 -1.0786218543E+01  2.4971973785E+01 -2.0640482974E+01  3.4146325170E+01  0.0000000000E+00 0. 9.
</event>
<event>
    12   226  1.000000E+00  2.853009E+02  7.863976E-03  1.080667E-01
       1   -1    0    0  101    0  0.0000000000E+00  0.0000000000E+00  5.9186242248E+02  5.9186242248E+02  0.0000000000E+00 0. 9.
      -1   -1    0    0    0  101  0.0000000000E+00  0.0000000000E+00 -1.8340650320E+02  1.8340650320E+02  0.0000000000E+00 0. 9.
-1000024    2    1    2    0    0  1.0794466591E+01 -9.4340167909E+01  3.9810571435E+02  4.8978032978E+02  2.6903535800E+02 0. 9.
 1000024    2    1    2    0    0 -1.0794466591E+01  9.4340167909E+01  1.0350204931E+01  2.8548859590E+02  2.6903535800E+02 0. 9.
 1000022    1    3    0    0    0  1.2904670486E+01 -1.0298363046E+02  3.6785990234E+02  4.0339081912E+02  1.2896157000E+02 0. 9.
     -24    2    3    0    0    0 -2.1102038948E+00  8.6434625461E+00  3.0245812005E+01  8.6389510661E+01  8.0431188000E+01 0. 9.
 1000022    1    4    0    0    0 -5.5452104983E+01  1.0296723522E+01  5.7790100580E+01  1.5215696081E+02  1.2896157000E+02 0. 9.
      24    2    4    0    0    0  4.4657638391E+01  8.4043444387E+01 -4.7439895649E+01  1.3333163508E+02  8.0431188000E+01 0. 9.
       1    1    6    0  102    0  9.4824610373E+00  3.8858922568E+01 -2.8169047240E+00  4.0099585817E+01  3.3000000000E-01 0. 9.
      -4    1    6    0    0  102 -1.1592664932E+01 -3.0215460022E+01  3.3062716729E+01  4.6289924844E+01  1.5000000000E+00 0. 9.
      -3    1    8    0    0  103  5.4182263305E+01  6.4509628478E+01 -6.4139196644E+01  1.0588340932E+02  5.0000000000E-01 0. 9.
       4    1    8    0  103    0 -9.5246249130E+00  1.9533815909E+01  1.6699300995E+01  2.7448225761E+01  1.5000000000E+00 0. 9.
</event>
<event>
    24   259  1.000000E+00  1.152788E+03  7.990295E-03  9.126244E-02
       2   -1    0    0  101    0  0.0000000000E+00  0.0000000000E+00  2.2420668306E+03  2.2420668306E+03  0.0000000000E+00 0. 9.
      21   -1    0    0  102  101  0.0000000000E+00  0.0000000000E+00 -6.0080488274E+02  6.0080488274E+02  0.0000000000E+00 0. 9.
 2000002    2    1    2  103    0 -6.7707550210E+02 -7.0772010556E+01  1.0324240571E+03  1.5849332181E+03  9.9129912700E+02 0. 9.
 1000021    2    1    2  102  103  6.7707550210E+02  7.0772010556E+01  6.0883789072E+02  1.2579384952E+03  8.6503512500E+02 0. 9.
 1000021    2    3    0  103  104 -6.8138710592E+02  7.3166861643E+00  1.0282282214E+03  1.5066124136E+03  8.6503512500E+02 0. 9.
       2    1    3    0  104    0  4.3116038142E+00 -7.8088696720E+01  4.1958356774E+00  7.8320804516E+01  3.3000000000E-01 0. 9.
-1000024    2    4    0    0    0  2.0012785268E+02 -1.7555651585E+01 -7.2322144940E+01  3.4346742906E+02  2.6903535800E+02 0. 9.
       2    1    4    0  102    0  8.6605599185E+00  1.1773493710E+02  5.0475139782E+01  1.2839146914E+02  3.3000000000E-01 0. 9.
      -1    1    4    0    0  103  4.6828708951E+02 -2.9407274962E+01  6.3068489588E+02  7.8607959699E+02  3.3000000000E-01 0. 9.
-1000024    2    5    0    0    0 -5.8851742091E+02  1.5872671077E+01  7.1770212571E+02  9.6647869170E+02  2.6903535800E+02 0. 9.
       6    2    5    0  103    0 -7.5033122891E+01 -8.0588046210E+01  3.8411943790E+02  4.3551163624E+02  1.7320000000E+02 0. 9.
      -5    1    5    0    0  104 -1.7836562117E+01  7.2032061297E+01 -7.3593342163E+01  1.0462208569E+02  4.8000000000E+00 0. 9.
 1000022    1    7    0    0    0  7.8931196185E+01 -6.2697105659E+01  2.0728873053E+01  1.6499040428E+02  1.2896157000E+02 0. 9.
     -24    2    7    0    0    0  1.2119665649E+02  4.5141454074E+01 -9.3051017993E+01  1.7847702478E+02  8.0431188000E+01 0. 9.
 1000022    1   10    0    0    0 -3.8953361455E+02  2.6312252895E+01  3.4709854883E+02  5.3808666648E+02  1.2896157000E+02 0. 9.
     -24    2   10    0    0    0 -1.9898380636E+02 -1.0439581818E+01  3.7060357688E+02  4.2839202521E+02  8.0431188000E+01 0. 9.
      24    2   11    0    0    0 -1.1292159232E+02 -4.7025568695E+01  2.2471554634E+02  2.6819571752E+02  8.0431188000E+01 0. 9.
       5    1   11    0  103    0  3.7888469429E+01 -3.3562477515E+01  1.5940389156E+02  1.6731591872E+02  4.8000000000E+00 0. 9.
      11    1   14    0    0    0 -1.4443235657E-01 -7.2137311321E+00  8.9794764280E+00  1.1519104771E+01  5.1000000000E-04 0. 9.
     -12    1   14    0    0    0  1.2134108885E+02  5.2355185206E+01 -1.0203049442E+02  1.6695792001E+02  0.0000000000E+00 0. 9.
      13    1   16    0    0    0 -8.7106164082E+00 -1.9575374873E+01  6.3381847159E+01  6.6905454583E+01  1.0566000000E-01 0. 9.
     -14    1   16    0    0    0 -1.9027318995E+02  9.1357930543E+00  3.0722172972E+02  3.6148657063E+02  0.0000000000E+00 0. 9.
     -13    1   17    0    0    0 -4.3026121288E+01 -1.2680882279E+01  1.9896515268E+01  4.9070707885E+01  1.0566000000E-01 0. 9.
      14    1   17    0    0    0 -6.9895471031E+01 -3.4344686416E+01  2.0481903108E+02  2.1912500963E+02  0.0000000000E+00 0. 9.
</event>
<event>
    24   259  1.000000E+00  9.508162E+02  7.972630E-03  9.326287E-02
      21   -1    0    0  101  102  0.0000000000E+00  0.0000000000E+00  7.5686860758E+02  7.5686860758E+02  0.0000000000E+00 0. 9.
       2   -1    0    0  102    0  0.0000000000E+00  0.0000000000E+00 -1.2980400597E+03  1.2980400597E+03  0.0000000000E+00 0. 9.
 1000021    2    1    2  101  103  1.0778215376E+02  1.6417836006E+02  4.2187795286E+01  8.8805242195E+02  8.6503512500E+02 0. 9.
 2000002    2    1    2  103    0 -1.0778215376E+02 -1.6417836006E+02 -5.8335924743E+02  1.1668562454E+03  9.9129912700E+02 0. 9.
 1000024    2    3    0    0    0  2.0430045463E+01  1.9152842511E+02  1.1935704888E+02  3.5174799695E+02  2.6903535800E+02 0. 9.
      -6    2    3    0    0  103  9.8750580482E+01 -3.0869587348E+01 -2.7332946738E+02  3.3972319071E+02  1.7320000000E+02 0. 9.
       5    1    3    0  101    0 -1.1398472182E+01  3.5195222981E+00  1.9616021378E+02  1.9658123430E+02  4.8000000000E+00 0. 9.
 1000021    2    4    0  103  104 -1.1878097308E+02 -1.9006830231E+02 -6.4301275190E+02  1.1009023779E+03  8.6503512500E+02 0. 9.
       2    1    4    0  104    0  1.0998819322E+01  2.5889942242E+01  5.9653504468E+01  6.5953867446E+01  3.3000000000E-01 0. 9.
 1000022    1    5    0    0    0  7.5065843774E+01  1.0845360350E+02  1.2647522648E+02  2.2366075754E+02  1.2896157000E+02 0. 9.
      24    2    5    0    0    0 -5.4635798311E+01  8.3074821618E+01 -7.1181775979E+00  1.2808723941E+02  8.0431188000E+01 0. 9.
     -24    2    6    0    0    0  4.6893913019E+01 -7.1053177932E+01 -2.3752762791E+02  2.6483229259E+02  8.0431188000E+01 0. 9.
      -5    1    6    0    0  103  5.1856667462E+01  4.0183590584E+01 -3.5801839470E+01  7.4890898125E+01  4.8000000000E+00 0. 9.
 1000023    2    8    0    0    0 -9.4318204301E+01 -4.6631689540E+02 -5.7499959608E+02  7.9326869500E+02  2.6889276000E+02 0. 9.
       5    1    8    0  103    0 -3.3074360321E+01  2.5528080002E+02 -2.4863803298E+01  2.5865701012E+02  4.8000000000E+00 0. 9.
      -5    1    8    0    0  104  8.6115915363E+00  2.0967793071E+01 -4.3149352524E+01  4.8976672797E+01  4.8000000000E+00 0. 9.
     -15    1   11    0    0    0 -5.5385393216E+01  7.3790137989E+01 -3.4996686285E+01  9.8693728403E+01  1.7770000000E+00 0. 9.
      16    1   11    0    0    0  7.4959490474E-01  9.2846836283E+00  2.7878508687E+01  2.9393511005E+01  0.0000000000E+00 0. 9.
      13    1   12    0    0    0  3.5462809530E+01  7.2523828527E+00 -9.7319643836E+01  1.0383319391E+02  1.0566000000E-01 0. 9.
     -14    1   12    0    0    0  1.1431103489E+01 -7.8305560785E+01 -1.4020798407E+02  1.6099909868E+02  0.0000000000E+00 0. 9.
 1000022    1   14    0    0    0 -4.1372109139E+01 -2.6830246659E+02 -2.6630922641E+02  4.0155890676E+02  1.2896157000E+02 0. 9.
      25    2   14    0    0    0 -5.2946095162E+01 -1.9801442881E+02 -3.0869036967E+02  3.9170978824E+02  1.2701893900E+02 0. 9.
       5    1   22    0  105    0 -7.3524090924E+01 -1.9719412784E+02 -2.3712008429E+02  3.1708088932E+02  4.8000000000E+00 0. 9.
      -5    1   22    0    0  105  2.0577995763E+01 -8.2030096724E-01 -7.1570285390E+01  7.4628898920E+01  4.8000000000E+00 0. 9.
</event>
<event>
    12   226  1.000000E+00  3.145455E+02  7.872673E-03  1.066938E-01
       2   -1    0    0  101    0  0.0000000000E+00  0.0000000000E+00  2.4196286361E+02  2.4196286361E+02  0.0000000000E+00 0. 9.
      -2   -1    0    0    0  101  0.0000000000E+00  0.0000000000E+00 -4.0895491160E+02  4.0895491160E+02  0.0000000000E+00 0. 9.
 1000024    2    1    2    0    0 -1.5778318510E+02  4.0783584034E+01 -8.7232650996E+01  3.2641751405E+02  2.6903535800E+02 0. 9.
-1000024    2    1    2    0    0  1.5778318510E+02 -4.0783584034E+01 -7.9759397003E+01  3.2450026116E+02  2.6903535800E+02 0. 9.
 1000022    1    3    0    0    0 -1.7695404112E+02  2.1873080500E+01 -2.5524123735E+01  2.2152591666E+02  1.2896157000E+02 0. 9.
      24    2    3    0    0    0  1.9170856026E+01  1.8910503534E+01 -6.1708527261E+01  1.0489159740E+02  8.0431188000E+01 0. 9.
 1000022    1    4    0    0    0  1.0118108626E+02  5.4241559243E+01 -7.3348028962E+01  1.8759205435E+02  1.2896157000E+02 0. 9.
     -24    2    4    0    0    0  5.6602098834E+01 -9.5025143277E+01 -6.4113680417E+00  1.3690820680E+02  8.0431188000E+01 0. 9.
     -11    1    6    0    0    0  3.7484394416E+01 -1.8222832642E+01 -2.0394898071E+01  4.6401544391E+01  5.1000000000E-04 0. 9.
      12    1    6    0    0    0 -1.8313538390E+01  3.7133336176E+01 -4.1313629189E+01  5.8490053006E+01  0.0000000000E+00 0. 9.
      15    1    8    0    0    0  5.7938846850E+01 -2.1165408490E+01 -1.1848602350E+01  6.2836546671E+01  1.7770000000E+00 0. 9.
     -16    1    8    0    0    0 -1.3367480166E+00 -7.3859734786E+01  5.4372343086E+00  7.4071660133E+01  0.0000000000E+00 0. 9.
</event>
<event>
    15   271  1.000000E+00  9.956127E+02  7.976845E-03  9.277682E-02
       2   -1    0    0  101    0  0.0000000000E+00  0.0000000000E+00  1.7317339348E+03  1.7317339348E+03  0.0000000000E+00 0. 9.
       2   -1    0    0  102    0  0.0000000000E+00  0.0000000000E+00 -1.0748135665E+03  1.0748135665E+03  0.0000000000E+00 0. 9.
 1000002    2    1    2  102    0  4.5395674725E+01 -7.8097300780E+01  1.2878750685E+03  1.6278411877E+03  9.9150632100E+02 0. 9.
 1000002    2    1    2  101    0 -4.5395674725E+01  7.8097300780E+01 -6.3095470020E+02  1.1787063137E+03  9.9150632100E+02 0. 9.
 1000024    2    3    0    0    0 -2.7824959877E+02 -2.5535056215E+02  1.1393045117E+03  1.2300494068E+03  2.6903535800E+02 0. 9.
       1    1    3    0  102    0  3.2364527349E+02  1.7725326137E+02  1.4857055677E+02  3.9779178091E+02  3.3000000000E-01 0. 9.
 1000021    2    4    0  101  103  6.6573589462E+01  1.1944730315E+02 -5.4321489854E+02  1.0305667831E+03  8.6503512500E+02 0. 9.
       2    1    4    0  103    0 -1.1196926419E+02 -4.1350002367E+01 -8.7739801653E+01  1.4813953055E+02  3.3000000000E-01 0. 9.
 1000022    1    5    0    0    0 -2.3564801541E+02 -2.1635019047E+02  7.0832194065E+02  7.8783783244E+02  1.2896157000E+02 0. 9.
      24    2    5    0    0    0 -4.2601583355E+01 -3.9000371674E+01  4.3098257106E+02  4.4221157432E+02  8.0431188000E+01 0. 9.
 1000022    1    7    0    0    0  5.5646610553E+01 -1.2291955603E+02 -1.9078051741E+02  2.6689708669E+02  1.2896157000E+02 0. 9.
       4    1    7    0  101    0 -3.0269978496E+02  5.1658188251E+01 -1.9841750640E+02  3.6560564147E+02  1.5000000000E+00 0. 9.
      -4    1    7    0    0  103  3.1362676386E+02  1.9070867092E+02 -1.5401687473E+02  3.9806405499E+02  1.5000000000E+00 0. 9.
     -11    1   10    0    0    0 -2.1446872754E+01  1.5875635638E+01  4.9609337288E+01  5.6330191764E+01  5.1000000000E-04 0. 9.
      12    1   10    0    0    0 -2.1154710602E+01 -5.4876007311E+01  3.8137323378E+02  3.8588138255E+02  0.0000000000E+00 0. 9.
</event>
<event>
    26   276  1.000000E+00  1.112349E+03  7.987014E-03  9.162680E-02
       2   -1    0    0  101    0  0.0000000000E+00  0.0000000000E+00  2.5089336585E+03  2.5089336585E+03  0.0000000000E+00 0. 9.
      -3   -1    0    0    0  101  0.0000000000E+00  0.0000000000E+00 -5.7563652129E+02  5.7563652129E+02  0.0000000000E+00 0. 9.
 2000002    2    1    2  102    0 -3.7902348913E+02  3.2861626108E+02  1.5494162547E+03  1.9065707807E+03  9.9129912700E+02 0. 9.
-1000003    2    1    2    0  102  3.7902348913E+02 -3.2861626108E+02  3.8388088251E+02  1.1779993991E+03  9.9431916400E+02 0. 9.
 1000021    2    3    0  102  103 -3.1944982156E+02  3.0493638571E+02  1.1645842684E+03  1.5164355158E+03  8.6503512500E+02 0. 9.
       2    1    3    0  103    0 -5.9573667570E+01  2.3679875366E+01  3.8483198632E+02  3.9013526495E+02  3.3000000000E-01 0. 9.
 1000021    2    4    0  104  102  2.5988134036E+02 -3.0587087712E+02  2.2801015790E+02  9.8049462218E+02  8.6503512500E+02 0. 9.
      -3    1    4    0    0  104  1.1914214877E+02 -2.2745383963E+01  1.5587072461E+02  1.9750477689E+02  5.0000000000E-01 0. 9.
-1000024    2    5    0    0    0 -7.9175328398E+01 -7.1634635239E+01  2.2954805106E+02  3.6942196090E+02  2.6903535800E+02 0. 9.
       6    2    5    0  102    0 -1.2574013526E+02 -5.2304109216E+01  3.1857122914E+02  3.8733986303E+02  1.7320000000E+02 0. 9.
      -5    1    5    0    0  103 -1.1453435790E+02  4.2887513017E+02  6.1646498821E+02  7.5967369186E+02  4.8000000000E+00 0. 9.
 1000024    2    7    0    0    0  1.0205832966E+02 -3.7638073853E+01  2.5212493504E+02  3.8442103738E+02  2.6903535800E+02 0. 9.
      -4    1    7    0    0  102 -1.2615293849E+02  4.3641155575E+01  8.7682932959E+01  1.5971744138E+02  1.5000000000E+00 0. 9.
       3    1    7    0  104    0  2.8397594919E+02 -3.1187395884E+02 -1.1179771009E+02  4.3635614342E+02  5.0000000000E-01 0. 9.
 1000022    1    9    0    0    0  9.8340836637E+00 -1.0218024420E+01  3.7958916179E+01  1.3517796817E+02  1.2896157000E+02 0. 9.
     -24    2    9    0    0    0 -8.9009412062E+01 -6.1416610819E+01  1.9158913488E+02  2.3424399273E+02  8.0431188000E+01 0. 9.
      24    2   10    0    0    0 -4.2053429770E+01 -8.9864795067E+01  1.6937847403E+02  2.1213772841E+02  8.0431188000E+01 0. 9.
       5    1   10    0  102    0 -8.3686705490E+01  3.7560685851E+01  1.4919275510E+02  1.7520213461E+02  4.8000000000E+00 0. 9.
 1000022    1   12    0    0    0  1.0614288583E+02  6.5306551374E+00  7.1539631889E+01  1.8181850053E+02  1.2896157000E+02 0. 9.
      24    2   12    0    0    0 -4.0845561686E+00 -4.4168728991E+01  1.8058530315E+02  2.0260253684E+02  8.0431188000E+01 0. 9.
       1    1   16    0  105    0 -5.6886466548E+01 -4.5602992331E+01  5.0521321250E+01  8.8702963799E+01  3.3000000000E-01 0. 9.
      -2    1   16    0    0  105 -3.2122945514E+01 -1.5813618489E+01  1.4106781363E+02  1.4554102893E+02  3.3000000000E-01 0. 9.
      -3    1   17    0    0  106 -3.8828388479E+01 -2.5446336510E+01  2.2244534232E+01  5.1480375842E+01  5.0000000000E-01 0. 9.
       4    1   17    0  106    0 -3.2250412912E+00 -6.4418458557E+01  1.4713393980E+02  1.6065735257E+02  1.5000000000E+00 0. 9.
      -1    1   20    0    0  107 -6.6123404347E+00 -3.0139618721E+01  1.8509336997E+02  1.8764803268E+02  3.3000000000E-01 0. 9.
       2    1   20    0  107    0  2.5277842661E+00 -1.4029110269E+01 -4.5080668228E+00  1.4954504162E+01  3.3000000000E-01 0. 9.
</event>
<event>
    21   258  1.000000E+00  9.877573E+02  7.976119E-03  9.286009E-02
       2   -1    0    0  101    0  0.0000000000E+00  0.0000000000E+00  1.1400482460E+03  1.1400482460E+03  0.0000000000E+00 0. 9.
      21   -1    0    0  102  101  0.0000000000E+00  0.0000000000E+00 -9.0919185623E+02  9.0919185623E+02  0.0000000000E+00 0. 9.
 1000002    2    1    2  103    0 -3.2591125836E+02 -6.1327660602E+01  3.7693042480E+02  1.1113687777E+03  9.9150632100E+02 0. 9.
 1000021    2    1    2  102  103  3.2591125836E+02  6.1327660602E+01 -1.4607403500E+02  9.3787132458E+02  8.6503512500E+02 0. 9.
 1000024    2    3    0    0    0  1.5146421182E+02 -3.3331955685E+02  1.7217365527E+01  4.5466448725E+02  2.6903535800E+02 0. 9.
       1    1    3    0  103    0 -4.7737547018E+02  2.7199189625E+02  3.5971305927E+02  6.5670429043E+02  3.3000000000E-01 0. 9.
-1000024    2    4    0    0    0  4.7764917963E+01  2.9123332934E+02  9.6790252995E+01  4.1090962076E+02  2.6903535800E+02 0. 9.
       6    2    4    0  102    0  7.1160745606E+01 -7.9071645193E+01 -5.9005885290E+01  2.1165091847E+02  1.7320000000E+02 0. 9.
      -5    1    4    0    0  103  2.0698559480E+02 -1.5083402355E+02 -1.8385840271E+02  3.1531078535E+02  4.8000000000E+00 0. 9.
 1000022    1    5    0    0    0  1.1592105899E+02 -1.1974129567E+02  6.1426598976E+01  2.1949939272E+02  1.2896157000E+02 0. 9.
      24    2    5    0    0    0  3.5543152830E+01 -2.1357826118E+02 -4.4209233449E+01  2.3516509453E+02  8.0431188000E+01 0. 9.
 1000022    1    7    0    0    0 -4.5449082240E+01  1.4326638465E+02  9.1972941756E+01  2.1835975957E+02  1.2896157000E+02 0. 9.
     -24    2    7    0    0    0  9.3214000203E+01  1.4796694469E+02  4.8173112391E+00  1.9254986120E+02  8.0431188000E+01 0. 9.
      24    2    8    0    0    0  8.4384522357E+01 -8.1705843464E+01 -9.6189024356E+01  1.7180831435E+02  8.0431188000E+01 0. 9.
       5    1    8    0  102    0 -1.3223776751E+01  2.6341982708E+00  3.7183139066E+01  3.9842604118E+01  4.8000000000E+00 0. 9.
      -3    1   11    0    0  104  2.9254952200E+01 -7.9005038304E+01  1.8970507041E+01  8.6358430063E+01  5.0000000000E-01 0. 9.
       4    1   11    0  104    0  6.2882006300E+00 -1.3457322288E+02 -6.3179740490E+01  1.4880666447E+02  1.5000000000E+00 0. 9.
       3    1   13    0  105    0  8.1466402915E+01  5.4634795979E+01  7.9835304690E+00  9.8416068273E+01  5.0000000000E-01 0. 9.
      -4    1   13    0    0  105  1.1747597288E+01  9.3332148715E+01 -3.1662192299E+00  9.4133792923E+01  1.5000000000E+00 0. 9.
      -3    1   14    0    0  106  6.6556247286E+01 -1.1286976197E+01 -3.1370395658E+01  7.4441128472E+01  5.0000000000E-01 0. 9.
       4    1   14    0  106    0  1.7828275071E+01 -7.0418867267E+01 -6.4818628699E+01  9.7367185876E+01  1.5000000000E+00 0. 9.
</event>
<event>
    20   259  1.000000E+00  9.743394E+02  7.974867E-03  9.300422E-02
      21   -1    0    0  101  102  0.0000000000E+00  0.0000000000E+00  6.7753392722E+02  6.7753392722E+02  0.0000000000E+00 0. 9.
       2   -1    0    0  102    0  0.0000000000E+00  0.0000000000E+00 -1.4218754646E+03  1.4218754646E+03  0.0000000000E+00 0. 9.
 1000021    2    1    2  101  103 -1.9645842395E+02 -2.1274766933E+02 -4.9139803176E+02  1.0361540794E+03  8.6503512500E+02 0. 9.
 2000002    2    1    2  103    0  1.9645842395E+02  2.1274766933E+02 -2.5294350561E+02  1.0632553124E+03  9.9129912700E+02 0. 9.
 1000023    2    3    0    0    0 -4.0745891590E+02 -1.5663911308E+02 -1.5523521115E+02  5.3568635138E+02  2.6889276000E+02 0. 9.
       2    1    3    0  101    0 -3.8124080450E+01  2.1382830706E+01 -2.0280414005E+02  2.0746156049E+02  3.3000000000E-01 0. 9.
      -2    1    3    0    0  103  2.4912457240E+02 -7.7491386955E+01 -1.3335868055E+02  2.9300616752E+02  3.3000000000E-01 0. 9.
 1000021    2    4    0  103  104  1.9805064446E+02  7.1032186591E+01 -2.3202435524E+02  9.1999494467E+02  8.6503512500E+02 0. 9.
       2    1    4    0  104    0 -1.5922205044E+00  1.4171548274E+02 -2.0919150361E+01  1.4326036774E+02  3.3000000000E-01 0. 9.
 1000022    1    5    0    0    0 -2.0992167216E+02 -5.2766400027E+01 -1.1006040993E+02  2.7494687084E+02  1.2896157000E+02 0. 9.
      25    2    5    0    0    0 -1.9753724374E+02 -1.0387271305E+02 -4.5174801220E+01  2.6073948054E+02  1.2701893900E+02 0. 9.
-1000024    2    8    0    0    0  1.1063714040E+02 -1.2280604846E+02 -6.9464625225E+01  3.2330675896E+02  2.6903535800E+02 0. 9.
       2    1    8    0  103    0  2.8359512561E+02  1.0610759371E+01 -1.8125353418E+00  2.8379953782E+02  3.3000000000E-01 0. 9.
      -1    1    8    0    0  104 -1.9618162155E+02  1.8322747568E+02 -1.6074719468E+02  3.1288864789E+02  3.3000000000E-01 0. 9.
       5    1   11    0  105    0 -1.9540945429E+02 -4.8793656860E+01 -3.5128690655E+01  2.0450608960E+02  4.8000000000E+00 0. 9.
      -5    1   11    0    0  105 -2.1277894508E+00 -5.5079056195E+01 -1.0046110565E+01  5.6233390941E+01  4.8000000000E+00 0. 9.
 1000022    1   12    0    0    0  6.9279389292E+01 -3.2355036796E+00  2.1421815414E+01  1.4798676622E+02  1.2896157000E+02 0. 9.
     -24    2   12    0    0    0  4.1357751105E+01 -1.1957054478E+02 -9.0886440639E+01  1.7531999273E+02  8.0431188000E+01 0. 9.
       3    1   18    0  106    0  3.5485456969E+01 -3.6511472985E+01  1.4988343197E+00  5.0939197286E+01  5.0000000000E-01 0. 9.
      -4    1   18    0    0  106  5.8722941360E+00 -8.3059071800E+01 -9.2385274959E+01  1.2438079545E+02  1.5000000000E+00 0. 9.
</event>
<event>
    14   248  1.000000E+00  7.726513E+02  7.953687E-03  9.551828E-02
      21   -1    0    0  101  102  0.0000000000E+00  0.0000000000E+00  1.4967039079E+03  1.4967039079E+03  0.0000000000E+00 0. 9.
       2   -1    0    0  102    0  0.0000000000E+00  0.0000000000E+00 -3.8629660144E+02  3.8629660144E+02  0.0000000000E+00 0. 9.
 1000023    2    1    2    0    0 -2.5543896723E+02  6.3615705070E+01  6.9669146571E+00  3.7636136649E+02  2.6889276000E+02 0. 9.
 1000002    2    1    2  101    0  2.5543896723E+02 -6.3615705070E+01  1.1034403918E+03  1.5066391428E+03  9.9150632100E+02 0. 9.
 1000022    1    3    0    0    0 -1.2978775680E+02  4.3021216796E+01 -3.6187266870E+01  1.9140609115E+02  1.2896157000E+02 0. 9.
      25    2    3    0    0    0 -1.2565121042E+02  2.0594488275E+01  4.3154181527E+01  1.8495527534E+02  1.2701893900E+02 0. 9.
 1000024    2    4    0    0    0  5.3375119152E+02 -1.2182359552E+02  1.0543489117E+03  1.2180980972E+03  2.6903535800E+02 0. 9.
       1    1    4    0  101    0 -2.7831222429E+02  5.8207890446E+01  4.9091480051E+01  2.8854104563E+02  3.3000000000E-01 0. 9.
      21    1    6    0  103  104  2.0599562020E+00 -3.7710334879E+01 -1.0149346521E+00  3.7780191484E+01  0.0000000000E+00 0. 9.
      21    1    6    0  104  103 -1.2771116663E+02  5.8304823154E+01  4.4169116180E+01  1.4717508386E+02  0.0000000000E+00 0. 9.
 1000022    1    7    0    0    0  4.1891591698E+02 -4.7847571850E+01  6.6694522086E+02  7.9951669763E+02  1.2896157000E+02 0. 9.
      24    2    7    0    0    0  1.1483527454E+02 -7.3976023666E+01  3.8740369089E+02  4.1858139958E+02  8.0431188000E+01 0. 9.
      -1    1   12    0    0  105  4.9805251383E+01 -4.5988283274E+01  8.8906936906E+01  1.1180356700E+02  3.3000000000E-01 0. 9.
       2    1   12    0  105    0  6.5030023158E+01 -2.7987740392E+01  2.9849675398E+02  3.0677783258E+02  3.3000000000E-01 0. 9.
</event>
<event>
    17   258  1.000000E+00  1.028801E+03  7.979850E-03  9.243369E-02
       1   -1    0    0  101    0  0.0000000000E+00  0.0000000000E+00  2.3322751740E+03  2.3322751740E+03  0.0000000000E+00 0. 9.
      21   -1    0    0  102  101  0.0000000000E+00  0.0000000000E+00 -6.1395245463E+02  6.1395245463E+02  0.0000000000E+00 0. 9.
 1000001    2    1    2  103    0 -4.0919708621E+02  1.5003682340E+02  1.4035167955E+02  1.0946791756E+03  9.9431916400E+02 0. 9.
 1000021    2    1    2  102  103  4.0919708621E+02 -1.5003682340E+02  1.5779710398E+03  1.8515484530E+03  8.6503512500E+02 0. 9.
 1000023    2    3    0    0    0 -3.2499041605E+02 -1.3526449610E+02  4.7326537248E+02  6.4822733944E+02  2.6889276000E+02 0. 9.
       1    1    3    0  103    0 -8.4206670160E+01  2.8530131950E+02 -3.3291369293E+02  4.4645183620E+02  3.3000000000E-01 0. 9.
-1000024    2    4    0    0    0  1.7979291985E+01 -2.8076271125E+02  1.2392788104E+03  1.2989776552E+03  2.6903535800E+02 0. 9.
       4    1    4    0  102    0  3.4109425551E+02  9.6636844880E+01  2.1447077055E+02  4.1434759847E+02  1.5000000000E+00 0. 9.
      -3    1    4    0    0  103  5.0123538711E+01  3.4089042967E+01  1.2422145886E+02  1.3822319930E+02  5.0000000000E-01 0. 9.
 1000022    1    5    0    0    0 -1.5516607071E+02 -1.0755626104E+02  2.5915613120E+02  3.4559780911E+02  1.2896157000E+02 0. 9.
      25    2    5    0    0    0 -1.6982434534E+02 -2.7708235060E+01  2.1410924128E+02  3.0262953033E+02  1.2701893900E+02 0. 9.
 1000022    1    7    0    0    0 -5.6706968714E+01 -1.2771949506E+02  7.7425580978E+02  7.9726475855E+02  1.2896157000E+02 0. 9.
     -24    2    7    0    0    0  7.4686260699E+01 -1.5304321619E+02  4.6502300064E+02  5.0171289667E+02  8.0431188000E+01 0. 9.
       5    1   11    0  104    0 -8.4360529656E+01 -7.3797789412E+01  8.3695935371E+01  1.3996736149E+02  4.8000000000E+00 0. 9.
      -5    1   11    0    0  104 -8.5463815682E+01  4.6089554352E+01  1.3041330591E+02  1.6266216883E+02  4.8000000000E+00 0. 9.
      15    1   13    0    0    0  5.0546461965E+01 -7.8849876114E+01  3.5285529380E+02  3.6507843523E+02  1.7770000000E+00 0. 9.
     -16    1   13    0    0    0  2.4139798734E+01 -7.4193340080E+01  1.1216770684E+02  1.3663446144E+02  0.0000000000E+00 0. 9.
</event>
<event>
    20   258  1.000000E+00  1.203494E+03  7.994253E-03  9.082707E-02
      21   -1    0    0  101  102  0.0000000000E+00  0.0000000000E+00  9.7657722481E+02  9.7657722481E+02  0.0000000000E+00 0. 9.
       2   -1    0    0  102    0  0.0000000000E+00  0.0000000000E+00 -1.6976238097E+03  1.6976238097E+03  0.0000000000E+00 0. 9.
 1000021    2    1    2  101  103 -6.6482751808E+02 -3.7512239363E+02  1.2986747783E+02  1.1609753521E+03  8.6503512500E+02 0. 9.
 1000002    2    1    2  103    0  6.6482751808E+02  3.7512239363E+02 -8.5091406268E+02  1.5132256823E+03  9.9150632100E+02 0. 9.
 1000024    2    3    0    0    0 -1.8594981972E+02 -9.7440286965E+01  4.0076379236E+02  5.2636829891E+02  2.6903535800E+02 0. 9.
      -4    1    3    0    0  103 -2.5282487668E+02 -6.1278756500E+01 -1.0638494842E+02  2.8106140168E+02  1.5000000000E+00 0. 9.
       3    1    3    0  101    0 -2.2605282169E+02 -2.1640335016E+02 -1.6451136611E+02  3.5354565155E+02  5.0000000000E-01 0. 9.
 1000021    2    4    0  103  104  5.9802636013E+02  2.5055012598E+02 -8.4434509882E+02  1.3717198353E+03  8.6503512500E+02 0. 9.
       2    1    4    0  104    0  6.6801157954E+01  1.2457226764E+02 -6.5689638581E+00  1.4150584707E+02  3.3000000000E-01 0. 9.
 1000022    1    5    0    0    0 -6.6354147527E+01  5.7577240908E-01  9.1835539168E+01  1.7166262610E+02  1.2896157000E+02 0. 9.
      24    2    5    0    0    0 -1.1959567219E+02 -9.8016059374E+01  3.0892825319E+02  3.5470567281E+02  8.0431188000E+01 0. 9.
 1000024    2    8    0    0    0  1.7917518060E+02 -1.3404466810E+02 -5.4607021164E+02  6.4857105878E+02  2.6903535800E+02 0. 9.
      -4    1    8    0    0  104  3.8179160644E+02  4.2464071065E+02 -3.3049292047E+02  6.5978207339E+02  1.5000000000E+00 0. 9.
       3    1    8    0  103    0  3.7059573086E+01 -4.0045916561E+01  3.2218033289E+01  6.3366703082E+01  5.0000000000E-01 0. 9.
      -1    1   11    0    0  105 -3.6588508055E+01 -9.2547470409E+00  2.3442579364E+01  4.4430087685E+01  3.3000000000E-01 0. 9.
       2    1   11    0  105    0 -8.3007164136E+01 -8.8761312334E+01  2.8548567382E+02  3.1027558512E+02  3.3000000000E-01 0. 9.
 1000022    1   12    0    0    0  3.5468126362E+01 -6.1090914934E+01 -1.3435367369E+02  1.9917852305E+02  1.2896157000E+02 0. 9.
      24    2   12    0    0    0  1.4370705424E+02 -7.2953753170E+01 -4.1171653795E+02  4.4939253573E+02  8.0431188000E+01 0. 9.
      -3    1   18    0    0  106  1.0769003717E+02 -8.7382733474E+01 -3.5003464398E+02  3.7650682357E+02  5.0000000000E-01 0. 9.
       4    1   18    0  106    0  3.6017017075E+01  1.4428980303E+01 -6.1681893979E+01  7.2885712155E+01  1.5000000000E+00 0. 9.
</event>
<event>
    26   243  1.000000E+00  1.257134E+03  7.998267E-03  9.039024E-02
      -2   -1    0    0    0  101  0.0000000000E+00  0.0000000000E+00  9.8343942038E+02  9.8343942038E+02  0.0000000000E+00 0. 9.
       2   -1    0    0  102    0  0.0000000000E+00  0.0000000000E+00 -1.6082783851E+03  1.6082783851E+03  0.0000000000E+00 0. 9.
 1000021    2    1    2  103  101  8.2144628082E+02 -3.9664303484E+02 -2.7586000801E+02  1.2870447548E+03  8.6503512500E+02 0. 9.
 1000021    2    1    2  102  103 -8.2144628082E+02  3.9664303484E+02 -3.4897895668E+02  1.3046730506E+03  8.6503512500E+02 0. 9.
-1000024    2    3    0    0    0  6.0478495910E+02 -2.7446694525E+02 -3.4821445609E+02  7.9669961847E+02  2.6903535800E+02 0. 9.
       6    2    3    0  103    0  1.3270192336E+02 -2.0983835615E+02  1.5822856673E+02  3.4157935462E+02  1.7320000000E+02 0. 9.
      -5    1    3    0    0  101  8.3959398366E+01  8.7662266562E+01 -8.5874118655E+01  1.4876578171E+02  4.8000000000E+00 0. 9.
 1000024    2    4    0    0    0 -8.5670919461E+01  1.9877493828E+02 -2.7303026402E+02  4.4020055822E+02  2.6903535800E+02 0. 9.
      -6    2    4    0    0  103 -4.9046778174E+02  1.6612528877E+02 -2.0766935548E+02  5.8419265461E+02  1.7320000000E+02 0. 9.
       5    1    4    0  102    0 -2.4530757963E+02  3.1742807795E+01  1.3172066283E+02  2.8027983781E+02  4.8000000000E+00 0. 9.
 1000022    1    5    0    0    0  4.5327408651E+02 -1.8083807499E+02 -3.2393779487E+02  5.9977211368E+02  1.2896157000E+02 0. 9.
     -24    2    5    0    0    0  1.5151087259E+02 -9.3628870266E+01 -2.4276661218E+01  1.9692750479E+02  8.0431188000E+01 0. 9.
      24    2    6    0    0    0  7.6120013616E+01 -1.5884628881E+02  3.5215079580E+01  1.9681381500E+02  8.0431188000E+01 0. 9.
       5    1    6    0  103    0  5.6581909742E+01 -5.0992067344E+01  1.2301348715E+02  1.4476553963E+02  4.8000000000E+00 0. 9.
 1000022    1    8    0    0    0 -1.2498331918E+02  1.1321790897E+02 -1.2186142570E+02  2.4478647552E+02  1.2896157000E+02 0. 9.
      24    2    8    0    0    0  3.9312399718E+01  8.5557029309E+01 -1.5116883832E+02  1.9541408270E+02  8.0431188000E+01 0. 9.
     -24    2    9    0    0    0 -3.5395275680E+02  4.9346500216E+01 -1.4073951196E+02  3.9242122440E+02  8.0431188000E+01 0. 9.
      -5    1    9    0    0  103 -1.3651502493E+02  1.1677878855E+02 -6.6929843522E+01  1.9177143020E+02  4.8000000000E+00 0. 9.
       1    1   12    0  104    0  8.9011983342E+01 -1.3099134683E+01  7.1518227016E+00  9.0255071746E+01  3.3000000000E-01 0. 9.
      -2    1   12    0    0  104  6.2498889248E+01 -8.0529735583E+01 -3.1428483920E+01  1.0667243305E+02  3.3000000000E-01 0. 9.
      -3    1   13    0    0  105  8.5831073231E+01 -1.2486138454E+02  7.2016850761E+00  1.5168867047E+02  5.0000000000E-01 0. 9.
       4    1   13    0  105    0 -9.7110596148E+00 -3.3984904266E+01  2.8013394504E+01  4.5125144525E+01  1.5000000000E+00 0. 9.
      -3    1   16    0    0  106 -1.6387200312E+00  3.7653091929E+01 -7.3723988698E+00  3.8406288551E+01  5.0000000000E-01 0. 9.
       4    1   16    0  106    0  4.0951119750E+01  4.7903937380E+01 -1.4379643945E+02  1.5700779415E+02  1.5000000000E+00 0. 9.
      13    1   17    0    0    0 -3.3696216738E+01  2.2414375102E+01  2.5241251384E+00  4.0549002521E+01  1.0566000000E-01 0. 9.
     -14    1   17    0    0    0 -3.2025654006E+02  2.6932125114E+01 -1.4326363710E+02  3.5187222188E+02  0.0000000000E+00 0. 9.
</event>
<event>
    12   230  1.000000E+00  3.766923E+02  7.888794E-03  1.042468E-01
      -1   -1    0    0    0  101  0.0000000000E+00  0.0000000000E+00  2.9318207163E+02  2.9318207163E+02  0.0000000000E+00 0. 9.
       2   -1    0    0  101    0  0.0000000000E+00  0.0000000000E+00 -6.1117516808E+02  6.1117516808E+02  0.0000000000E+00 0. 9.
 1000023    2    1    2    0    0  1.6996370972E+02 -2.0166244518E+02  4.7295231083E+01  3.7959920928E+02  2.6889276000E+02 0. 9.
 1000024    2    1    2    0    0 -1.6996370972E+02  2.0166244518E+02 -3.6528832754E+02  5.2475803044E+02  2.6903535800E+02 0. 9.
 1000022    1    3    0    0    0  1.1700437426E+02 -8.1617899118E+01  4.2340041569E+01  1.9691437405E+02  1.2896157000E+02 0. 9.
      25    2    3    0    0    0  5.2959335465E+01 -1.2004454606E+02  4.9551895146E+00  1.8268483522E+02  1.2701893900E+02 0. 9.
 1000022    1    4    0    0    0 -4.4510172929E+01  1.8043229402E+02 -2.2140416772E+02  3.1652465977E+02  1.2896157000E+02 0. 9.
      24    2    4    0    0    0 -1.2545353679E+02  2.1230151167E+01 -1.4388415981E+02  2.0823337067E+02  8.0431188000E+01 0. 9.
       5    1    6    0  102    0  3.5653249865E+00 -8.0757450694E+01 -5.3068639475E+01  9.6818375739E+01  4.8000000000E+00 0. 9.
      -5    1    6    0    0  102  4.9394010479E+01 -3.9287095370E+01  5.8023828990E+01  8.5866459484E+01  4.8000000000E+00 0. 9.
      -3    1    8    0    0  103 -5.7757587034E+01 -2.8233294585E+01 -4.4448074804E+01  7.8159702769E+01  5.0000000000E-01 0. 9.
       4    1    8    0  103    0 -6.7695949760E+01  4.9463445751E+01 -9.9436085010E+01  1.3007366790E+02  1.5000000000E+00 0. 9.
</event>
<event>
    20   258  1.000000E+00  1.029768E+03  7.979936E-03  9.242390E-02
      21   -1    0    0  101  102  0.0000000000E+00  0.0000000000E+00  9.0685202246E+02  9.0685202246E+02  0.0000000000E+00 0. 9.
       2   -1    0    0  102    0  0.0000000000E+00  0.0000000000E+00 -1.1701239844E+03  1.1701239844E+03  0.0000000000E+00 0. 9.
 1000021    2    1    2  101  103 -2.4592939278E+02  3.6640940653E+02 -1.8774685866E+02  9.8907622044E+02  8.6503512500E+02 0. 9.
 1000002    2    1    2  103    0  2.4592939278E+02 -3.6640940653E+02 -7.5525103265E+01  1.0878997864E+03  9.9150632100E+02 0. 9.
-1000024    2    3    0    0    0 -3.0069735091E+01  4.8990410318E+02  6.1515321806E+01  5.6309357832E+02  2.6903535800E+02 0. 9.
       6    2    3    0  101    0 -1.5315495827E+02 -3.1136176672E+01 -1.7820246383E+02  2.9356474730E+02  1.7320000000E+02 0. 9.
      -5    1    3    0    0  103 -6.2704699415E+01 -9.2358519975E+01 -7.1059716633E+01  1.3241789482E+02  4.8000000000E+00 0. 9.
 1000021    2    4    0  103  104  1.0334476268E+02 -3.5803769837E+02 -5.3788171850E+01  9.4342464900E+02  8.6503512500E+02 0. 9.
       2    1    4    0  104    0  1.4258463009E+02 -8.3717081597E+00 -2.1736931415E+01  1.4447513739E+02  3.3000000000E-01 0. 9.
 1000022    1    5    0    0    0 -9.2826422430E+01  3.6731929278E+02  4.1490310368E+01  4.0235896900E+02  1.2896157000E+02 0. 9.
     -24    2    5    0    0    0  6.2756687339E+01  1.2258481040E+02  2.0025011439E+01  1.6073460932E+02  8.0431188000E+01 0. 9.
      24    2    6    0    0    0 -1.2148571229E+02 -2.0161693336E+01 -2.0364754780E+02  2.5121061263E+02  8.0431188000E+01 0. 9.
       5    1    6    0  101    0 -3.1669245981E+01 -1.0974483336E+01  2.5445083969E+01  4.2354134671E+01  4.8000000000E+00 0. 9.
 1000022    1    8    0    0    0 -8.5548519608E+01 -1.9806611586E+02 -3.3624673594E+02  4.1981149273E+02  1.2896157000E+02 0. 9.
       4    1    8    0  103    0  1.7632149987E+02 -2.7159505601E+02  2.4184116282E+02  4.0415658327E+02  1.5000000000E+00 0. 9.
      -4    1    8    0    0  104  1.2571782420E+01  1.1162347350E+02  4.0617401265E+01  1.1945657301E+02  1.5000000000E+00 0. 9.
      13    1   11    0    0    0  5.3537770906E+01  4.2163852376E+01  3.7698842833E+01  7.7880018463E+01  1.0566000000E-01 0. 9.
     -14    1   11    0    0    0  9.2189164329E+00  8.0420958023E+01 -1.7673831395E+01  8.2854590855E+01  0.0000000000E+00 0. 9.
     -11    1   12    0    0    0 -1.2188809379E+02 -1.6650984977E+01 -1.3566558511E+02  1.8313687147E+02  5.1000000000E-04 0. 9.
      12    1   12    0    0    0  4.0238149822E-01 -3.5107083596E+00 -6.7981962691E+01  6.8073741159E+01  0.0000000000E+00 0. 9.
</event>
<event>
    12   230  1.000000E+00  2.965796E+02  7.867429E-03  1.075170E-01
       2   -1    0    0  101    0  0.0000000000E+00  0.0000000000E+00  3.8234653633E+02  3.8234653633E+02  0.0000000000E+00 0. 9.
      -1   -1    0    0    0  101  0.0000000000E+00  0.0000000000E+00 -2.3524603366E+02  2.3524603366E+02  0.0000000000E+00 0. 9.
 1000024    2    1    2    0    0 -4.5507851106E+01 -1.1639083007E+02  1.1945164227E+02  3.1979135156E+02  2.6903535800E+02 0. 9.
 1000023    2    1    2    0    0  4.5507851106E+01  1.1639083007E+02  2.7648860402E+01  2.9780121843E+02  2.6889276000E+02 0. 9.
 1000022    1    3    0    0    0  4.9861930996E+01 -5.3728390740E+01  2.3016617363E+01  1.5011263553E+02  1.2896157000E+02 0. 9.
      24    2    3    0    0    0 -9.5369782101E+01 -6.2662439333E+01  9.6435024911E+01  1.6967871603E+02  8.0431188000E+01 0. 9.
 1000022    1    4    0    0    0  1.3981835994E+01  9.0835085681E+01 -1.1647515039E+01  1.5878682462E+02  1.2896157000E+02 0. 9.
      25    2    4    0    0    0  3.1526015111E+01  2.5555744392E+01  3.9296375440E+01  1.3901439381E+02  1.2701893900E+02 0. 9.
      -1    1    6    0    0  102 -5.7786738656E+01 -5.2605636991E+01  1.0395534782E+02  1.3005184908E+02  3.3000000000E-01 0. 9.
       2    1    6    0  102    0 -3.7583043446E+01 -1.0056802342E+01 -7.5203229092E+00  3.9626866955E+01  3.3000000000E-01 0. 9.
       5    1    8    0  103    0 -3.6607354022E+00 -4.9515653512E+01  9.4690093880E+00  5.0773054519E+01  4.8000000000E+00 0. 9.
      -5    1    8    0    0  103  3.5186750513E+01  7.5071397904E+01  2.9827366052E+01  8.8241339295E+01  4.8000000000E+00 0. 9.
</event>
<event>
    17   258  1.000000E+00  9.745140E+02  7.974883E-03  9.300233E-02
       2   -1    0    0  101    0  0.0000000000E+00  0.0000000000E+00  7.7984828723E+02  7.7984828723E+02  0.0000000000E+00 0. 9.
      21   -1    0    0  102  101  0.0000000000E+00  0.0000000000E+00 -1.4437265714E+03  1.4437265714E+03  0.0000000000E+00 0. 9.
 1000002    2    1    2  103    0  2.3172438722E+02  1.7405762541E+02  9.4392715970E+01  1.0372979408E+03  9.9150632100E+02 0. 9.
 1000021    2    1    2  102  103 -2.3172438722E+02 -1.7405762541E+02 -7.5827100011E+02  1.1862769178E+03  8.6503512500E+02 0. 9.
 1000023    2    3    0    0    0  3.4776823555E+02  5.1233352714E+02  5.0033475718E+01  6.7693061222E+02  2.6889276000E+02 0. 9.
       2    1    3    0  103    0 -1.1604384833E+02 -3.3827590172E+02  4.4359240252E+01  3.6036732859E+02  3.3000000000E-01 0. 9.
 1000024    2    4    0    0    0 -3.7030436441E+01 -3.8615886689E+02 -5.5799488622E+02  7.3090918766E+02  2.6903535800E+02 0. 9.
      -2    1    4    0    0  103  5.7377587766E+01  4.2800381306E+01  2.6553692521E+01  7.6349641153E+01  3.3000000000E-01 0. 9.
       1    1    4    0  102    0 -2.5207153854E+02  1.6930086017E+02 -2.2682980641E+02  3.7901808898E+02  3.3000000000E-01 0. 9.
 1000022    1    5    0    0    0  1.0889970444E+02  1.9049719240E+02  7.4405889149E+01  2.6517098034E+02  1.2896157000E+02 0. 9.
      23    2    5    0    0    0  2.3886853111E+02  3.2183633473E+02 -2.4372413431E+01  4.1175963187E+02  9.1187600000E+01 0. 9.
 1000022    1    7    0    0    0  5.5060557458E-01 -8.9528960891E+01 -1.3735491370E+02  2.0859817080E+02  1.2896157000E+02 0. 9.
      24    2    7    0    0    0 -3.7581042016E+01 -2.9662990600E+02 -4.2063997252E+02  5.2231101686E+02  8.0431188000E+01 0. 9.
      14    1   11    0    0    0  7.5464779770E+01  9.1394141863E+01  3.3982048848E+01  1.2329883129E+02  0.0000000000E+00 0. 9.
     -14    1   11    0    0    0  1.6340375134E+02  2.3044219287E+02 -5.8354462279E+01  2.8846080059E+02  0.0000000000E+00 0. 9.
      -1    1   13    0    0  104 -2.3910337177E+01 -2.3411962878E+02 -2.6718937861E+02  3.5605333554E+02  3.3000000000E-01 0. 9.
       2    1   13    0  104    0 -1.3670704838E+01 -6.2510277217E+01 -1.5345059391E+02  1.6625768133E+02  3.3000000000E-01 0. 9.
</event>
<event>
    12   230  1.000000E+00  4.159135E+02  7.897678E-03  1.029498E-01
       2   -1    0    0  101    0  0.0000000000E+00  0.0000000000E+00  9.4173234932E+02  9.4173234932E+02  0.0000000000E+00 0. 9.
      -1   -1    0    0    0  101  0.0000000000E+00  0.0000000000E+00 -2.5499509594E+02  2.5499509594E+02  0.0000000000E+00 0. 9.
 1000024    2    1    2    0    0 -2.3418792010E+02 -2.1400564996E+02  6.5981938491E+02  7.7998977218E+02  2.6903535800E+02 0. 9.
 1000023    2    1    2    0    0  2.3418792010E+02  2.1400564996E+02  2.6917868465E+01  4.1673767308E+02  2.6889276000E+02 0. 9.
 1000022    1    3    0    0    0 -1.2863273972E+02 -9.4207437008E+01  1.9919319273E+02  2.8588535723E+02  1.2896157000E+02 0. 9.
      24    2    3    0    0    0 -1.0555518038E+02 -1.1979821296E+02  4.6062619219E+02  4.9410441494E+02  8.0431188000E+01 0. 9.
 1000022    1    4    0    0    0  1.5842021508E+02  1.4376645505E+02 -5.3762465703E+00  2.4985145328E+02  1.2896157000E+02 0. 9.
      25    2    4    0    0    0  7.5767705021E+01  7.0239194917E+01  3.2294115035E+01  1.6688621979E+02  1.2701893900E+02 0. 9.
     -13    1    6    0    0    0 -7.6692181881E+01 -5.4541833131E+01  1.6463893696E+02  1.8963779436E+02  1.0566000000E-01 0. 9.
      14    1    6    0    0    0 -2.8862998499E+01 -6.5256379825E+01  2.9598725523E+02  3.0446662058E+02  0.0000000000E+00 0. 9.
       5    1    8    0  102    0  4.8442651989E+01  4.6997702535E+01 -4.5189272803E+01  8.1366977035E+01  4.8000000000E+00 0. 9.
      -5    1    8    0    0  102  2.7325053032E+01  2.3241492382E+01  7.7483387838E+01  8.5519242760E+01  4.8000000000E+00 0. 9.
</event>
<event>
    24   258  1.000000E+00  9.713660E+02  7.974587E-03  9.303649E-02
       2   -1    0    0  101    0  0.0000000000E+00  0.0000000000E+00  7.1937733466E+02  7.1937733466E+02  0.0000000000E+00 0. 9.
      21   -1    0    0  102  101  0.0000000000E+00  0.0000000000E+00 -1.3676924076E+03  1.3676924076E+03  0.0000000000E+00 0. 9.
 1000002    2    1    2  103    0 -8.2246057211E+01  2.6665010266E+02 -1.2322730561E+02  1.0373699652E+03  9.9150632100E+02 0. 9.
 1000021    2    1    2  102  103  8.2246057211E+01 -2.6665010266E+02 -5.2508776734E+02  1.0496997771E+03  8.6503512500E+02 0. 9.
 1000021    2    3    0  103  104 -4.7288475538E+01  1.4598789616E+02 -2.6706014562E+01  8.7894689512E+02  8.6503512500E+02 0. 9.
       2    1    3    0  104    0 -3.4957581673E+01  1.2066220650E+02 -9.6521291049E+01  1.5842307003E+02  3.3000000000E-01 0. 9.
-1000024    2    4    0    0    0  8.0146719179E+01 -3.4086818264E+02 -6.6194626398E+02  7.9571822575E+02  2.6903535800E+02 0. 9.
       4    1    4    0  102    0 -6.2924885850E+01 -4.2529409034E+01  7.4907393877E+01  1.0668486092E+02  1.5000000000E+00 0. 9.
      -3    1    4    0    0  103  6.5024223882E+01  1.1674748901E+02  6.1951102768E+01  1.4729669044E+02  5.0000000000E-01 0. 9.
-1000024    2    5    0    0    0 -4.8665575305E+01  1.1156630062E+02  7.3925566407E+01  3.0440169329E+02  2.6903535800E+02 0. 9.
       6    2    5    0  103    0 -1.2717495329E+00  4.5694012930E-01  2.0420797253E+02  2.6777035345E+02  1.7320000000E+02 0. 9.
      -5    1    5    0    0  104  2.6488493000E+00  3.3964655411E+01 -3.0483955350E+02  3.0677484838E+02  4.8000000000E+00 0. 9.
 1000022    1    7    0    0    0  1.1658610179E+02 -2.8484169123E+02 -5.4294535091E+02  6.3729730017E+02  1.2896157000E+02 0. 9.
     -24    2    7    0    0    0 -3.6439382614E+01 -5.6026491407E+01 -1.1900091307E+02  1.5842092557E+02  8.0431188000E+01 0. 9.
 1000022    1   10    0    0    0 -1.3675884752E+01 -1.6155584508E+01  7.2510788892E+01  1.4945545750E+02  1.2896157000E+02 0. 9.
     -24    2   10    0    0    0 -3.4989690553E+01  1.2772188513E+02  1.4147775156E+00  1.5494623579E+02  8.0431188000E+01 0. 9.
      24    2   11    0    0    0  4.8546926012E+01 -4.5100442775E+01  1.3957276950E+02  1.7418549868E+02  8.0431188000E+01 0. 9.
       5    1   11    0  103    0 -4.9818675545E+01  4.5557382905E+01  6.4635203037E+01  9.3584854767E+01  4.8000000000E+00 0. 9.
       1    1   14    0  105    0 -4.3678958907E+01 -1.5157854028E+01 -1.8704976478E+01  4.9875816133E+01  3.3000000000E-01 0. 9.
      -2    1   14    0    0  105  7.2395762930E+00 -4.0868637379E+01 -1.0029593660E+02  1.0854510944E+02  3.3000000000E-01 0. 9.
       1    1   16    0  106    0 -4.6310498078E+00  1.1692555167E+02  1.8504771369E+01  1.1847179715E+02  3.3000000000E-01 0. 9.
      -2    1   16    0    0  106 -3.0358640745E+01  1.0796333456E+01 -1.7089993854E+01  3.6474438637E+01  3.3000000000E-01 0. 9.
      -3    1   17    0    0  107  1.1381016918E+01 -1.4007061393E+01 -7.3328226609E+00  1.9487062455E+01  5.0000000000E-01 0. 9.
       4    1   17    0  107    0  3.7165909094E+01 -3.1093381383E+01  1.4690559216E+02  1.5469843623E+02  1.5000000000E+00 0. 9.
</event>
<event>
    17   258  1.000000E+00  1.111097E+03  7.986910E-03  9.163833E-02
       2   -1    0    0  101    0  0.0000000000E+00  0.0000000000E+00  1.3502369348E+03  1.3502369348E+03  0.0000000000E+00 0. 9.
      21   -1    0    0  102  101  0.0000000000E+00  0.0000000000E+00 -9.5428724009E+02  9.5428724009E+02  0.0000000000E+00 0. 9.
 1000002    2    1    2  103    0  3.3649929513E+02 -5.0558844022E+02  4.4860200012E+02  1.2462664184E+03  9.9150632100E+02 0. 9.
 1000021    2    1    2  102  103 -3.3649929513E+02  5.0558844022E+02 -5.2652305392E+01  1.0582577565E+03  8.6503512500E+02 0. 9.
 1000024    2    3    0    0    0  7.9573438050E+01 -1.1297046931E+02 -2.5835372107E+02  3.9776994359E+02  2.6903535800E+02 0. 9.
       1    1    3    0  103    0  2.5692585708E+02 -3.9261797090E+02  7.0695572119E+02  8.4849647480E+02  3.3000000000E-01 0. 9.
 1000023    2    4    0    0    0  1.6784970036E+02  3.2714507571E+02  4.5989819988E+01  4.5783818364E+02  2.6889276000E+02 0. 9.
       5    1    4    0  102    0 -3.0949229577E+02  5.0041993651E+01 -1.6958173331E+02  3.5646975543E+02  4.8000000000E+00 0. 9.
      -5    1    4    0    0  103 -1.9485669972E+02  1.2840137085E+02  7.0939607926E+01  2.4394981746E+02  4.8000000000E+00 0. 9.
 1000022    1    5    0    0    0  5.5326818485E-01 -1.3335016942E+02 -1.8332724395E+02  2.6081130862E+02  1.2896157000E+02 0. 9.
      24    2    5    0    0    0  7.9020169865E+01  2.0379700110E+01 -7.5026477116E+01  1.3695863497E+02  8.0431188000E+01 0. 9.
 1000022    1    7    0    0    0  1.6716163672E+01  1.9360517252E+02  8.7227841409E+00  2.3338716000E+02  1.2896157000E+02 0. 9.
      23    2    7    0    0    0  1.5113353669E+02  1.3353990320E+02  3.7267035847E+01  2.2445102364E+02  9.1187600000E+01 0. 9.
      -3    1   11    0    0  104  5.0760820517E+01  3.3955806399E+01 -8.4420716948E+01  1.0419580192E+02  5.0000000000E-01 0. 9.
       4    1   11    0  104    0  2.8259349348E+01 -1.3576106289E+01  9.3942398329E+00  3.2762833052E+01  1.5000000000E+00 0. 9.
       1    1   13    0  105    0  1.5611195613E+02  1.3618332463E+02  4.7703149438E+01  2.1258537137E+02  3.3000000000E-01 0. 9.
      -1    1   13    0    0  105 -4.9784194412E+00 -2.6434214281E+00 -1.0436113590E+01  1.1865652273E+01  3.3000000000E-01 0. 9.
</event>
<event>
    22   271  1.000000E+00  1.103361E+03  7.986269E-03  9.170998E-02
       2   -1    0    0  101    0  0.0000000000E+00  0.0000000000E+00  1.1500590111E+03  1.1500590111E+03  0.0000000000E+00 0. 9.
       1   -1    0    0  102    0  0.0000000000E+00  0.0000000000E+00 -1.5517896187E+03  1.5517896187E+03  0.0000000000E+00 0. 9.
 1000002    2    1    2  102    0 -1.4686516339E+02 -4.5821115239E+02  5.6091536248E+02  1.2366234936E+03  9.9150632100E+02 0. 9.
 1000001    2    1    2  101    0  1.4686516339E+02  4.5821115239E+02 -9.6264597003E+02  1.4652251363E+03  9.9431916400E+02 0. 9.
 1000021    2    3    0  102  103 -7.8605052203E+01 -3.8488117793E+02  3.6721842904E+02  1.0185516273E+03  8.6503512500E+02 0. 9.
       2    1    3    0  103    0 -6.8260111186E+01 -7.3329974467E+01  1.9369693345E+02  2.1807186628E+02  3.3000000000E-01 0. 9.
 1000021    2    4    0  101  104  2.2503658364E+02  3.5105690440E+02 -7.6774080592E+02  1.2294690426E+03  8.6503512500E+02 0. 9.
       1    1    4    0  104    0 -7.8171420248E+01  1.0715424800E+02 -1.9490516412E+02  2.3575609368E+02  3.3000000000E-01 0. 9.
 1000024    2    5    0    0    0  1.6154976426E+02 -1.7173411318E+02  4.0863428221E+02  5.4309569360E+02  2.6903535800E+02 0. 9.
      -2    1    5    0    0  103 -3.7914905662E+01  5.8891519695E+01  8.8124640880E+01  1.1256914494E+02  3.3000000000E-01 0. 9.
       1    1    5    0  102    0 -2.0223991080E+02 -2.7203858445E+02 -1.2954049405E+02  3.6288678874E+02  3.3000000000E-01 0. 9.
 1000023    2    7    0    0    0 -1.0235711432E+02 -9.5827055892E+00 -1.5932399637E+02  3.2902318961E+02  2.6889276000E+02 0. 9.
       3    1    7    0  101    0  1.8341513119E+01 -3.1206365041E+01 -3.2403464156E+02  3.2605052868E+02  5.0000000000E-01 0. 9.
      -3    1    7    0    0  104  3.0905218484E+02  3.9184597503E+02 -2.8438216798E+02  5.7439532429E+02  5.0000000000E-01 0. 9.
 1000022    1    9    0    0    0  3.6238869081E+01 -1.2224138795E+02  1.2935825726E+02  2.2275739677E+02  1.2896157000E+02 0. 9.
      24    2    9    0    0    0  1.2531089518E+02 -4.9492725229E+01  2.7927602495E+02  3.2033829683E+02  8.0431188000E+01 0. 9.
 1000022    1   12    0    0    0 -8.9730745243E+01 -2.5773709814E+01 -8.8260520385E+01  1.8203542720E+02  1.2896157000E+02 0. 9.
      25    2   12    0    0    0 -1.2626369076E+01  1.6191004224E+01 -7.1063475986E+01  1.4698776241E+02  1.2701893900E+02 0. 9.
      -1    1   16    0    0  105  1.5754875429E+01  1.9411198465E+01  6.9385983758E+01  7.3753199033E+01  3.3000000000E-01 0. 9.
       2    1   16    0  105    0  1.0955601975E+02 -6.8903923694E+01  2.0989004119E+02  2.4658509780E+02  3.3000000000E-01 0. 9.
       5    1   18    0  106    0 -2.9878450881E+01 -4.7248001399E+01 -5.6201751254E+01  7.9415189399E+01  4.8000000000E+00 0. 9.
      -5    1   18    0    0  106  1.7252081805E+01  6.3439005623E+01 -1.4861724733E+01  6.7572573010E+01  4.8000000000E+00 0. 9.
</event>
<event>
    12   226  1.000000E+00  3.027564E+02  7.869266E-03  1.072270E-01
       2   -1    0    0  101    0  0.0000000000E+00  0.0000000000E+00  8.5220601357E+02  8.5220601357E+02  0.0000000000E+00 0. 9.
      -2   -1    0    0    0  101  0.0000000000E+00  0.0000000000E+00 -1.1929480622E+02  1.1929480622E+02  0.0000000000E+00 0. 9.
 1000024    2    1    2    0    0  9.9491391495E+01  9.6865098249E+01  5.1881911949E+02  6.0069516965E+02  2.6903535800E+02 0. 9.
-1000024    2    1    2    0    0 -9.9491391495E+01 -9.6865098249E+01  2.1409208786E+02  3.7080565014E+02  2.6903535800E+02 0. 9.
 1000022    1    3    0    0    0  2.6955764561E+01 -2.9229637749E+01  2.0227333446E+02  2.4315956353E+02  1.2896157000E+02 0. 9.
      24    2    3    0    0    0  7.2535626934E+01  1.2609473600E+02  3.1654578502E+02  3.5753560612E+02  8.0431188000E+01 0. 9.
 1000022    1    4    0    0    0 -5.0603423051E+01 -1.1790735580E+02  6.4887924570E+01  1.9314341891E+02  1.2896157000E+02 0. 9.
     -24    2    4    0    0    0 -4.8887968444E+01  2.1042257551E+01  1.4920416329E+02  1.7766223123E+02  8.0431188000E+01 0. 9.
      -1    1    6    0    0  102  3.6030894918E+01  9.0345549310E+01  2.7495850731E+02  2.9165533307E+02  3.3000000000E-01 0. 9.
       2    1    6    0  102    0  3.6504732017E+01  3.5749186688E+01  4.1587277717E+01  6.5880273044E+01  3.3000000000E-01 0. 9.
       3    1    8    0  103    0 -3.8796159298E+01 -2.4294349016E+01  1.0001328983E+02  1.0999211568E+02  5.0000000000E-01 0. 9.
      -4    1    8    0    0  103 -1.0091809146E+01  4.5336606566E+01  4.9190873460E+01  6.7670115550E+01  1.5000000000E+00 0. 9.
</event>
<event>
    17   258  1.000000E+00  9.333908E+02  7.970937E-03  9.345960E-02
       2   -1    0    0  101    0  0.0000000000E+00  0.0000000000E+00  1.0142395996E+03  1.0142395996E+03  0.0000000000E+00 0. 9.
      21   -1    0    0  102  101  0.0000000000E+00  0.0000000000E+00 -9.3899312883E+02  9.3899312883E+02  0.0000000000E+00 0. 9.
 1000002    2    1    2  103    0 -5.3357491601E+01 -5.1828259708E+01 -2.5141592419E+02  1.0255866331E+03  9.9150632100E+02 0. 9.
 1000021    2    1    2  102  103  5.3357491601E+01  5.1828259708E+01  3.2666239492E+02  9.2764609531E+02  8.6503512500E+02 0. 9.
 1000023    2    3    0    0    0 -9.7006713767E+01 -4.5193115064E+02  2.8234318956E+01  5.3549282029E+02  2.6889276000E+02 0. 9.
       2    1    3    0  103    0  4.3649222166E+01  4.0010289094E+02 -2.7965024315E+02  4.9009381278E+02  3.3000000000E-01 0. 9.
 1000023    2    4    0    0    0  4.4170187405E+01 -1.8848615676E+01  4.8682555027E+02  5.5821922983E+02  2.6889276000E+02 0. 9.
       3    1    4    0  102    0 -3.3254399161E+01  1.5742317437E+02 -2.0693238971E+02  2.6212434989E+02  5.0000000000E-01 0. 9.
      -3    1    4    0    0  103  4.2441703358E+01 -8.6746298989E+01  4.6769234356E+01  1.0730251560E+02  5.0000000000E-01 0. 9.
 1000022    1    5    0    0    0 -1.0115500321E+02 -2.2353968310E+02 -4.0452393340E+01  2.8012462809E+02  1.2896157000E+02 0. 9.
      23    2    5    0    0    0  4.1482894474E+00 -2.2839146754E+02  6.8686712296E+01  2.5536819221E+02  9.1187600000E+01 0. 9.
 1000022    1    7    0    0    0  8.1014148677E+01  1.0517453374E+01  3.8263228347E+02  4.1196172152E+02  1.2896157000E+02 0. 9.
      23    2    7    0    0    0 -3.6843961272E+01 -2.9366069050E+01  1.0419326680E+02  1.4625750830E+02  9.1187600000E+01 0. 9.
       2    1   11    0  104    0  7.1724004449E+00 -8.6863126749E+01  7.3074256621E+01  1.1373918409E+02  3.3000000000E-01 0. 9.
      -2    1   11    0    0  104 -3.0241109975E+00 -1.4152834079E+02 -4.3875443257E+00  1.4162900812E+02  3.3000000000E-01 0. 9.
       3    1   13    0  105    0 -1.8545257870E+01 -6.2998067137E+00 -1.4238426964E+01  2.4219763759E+01  5.0000000000E-01 0. 9.
      -3    1   13    0    0  105 -1.8298703402E+01 -2.3066262336E+01  1.1843169377E+02  1.2203774454E+02  5.0000000000E-01 0. 9.
</event>
<event>
    12   226  1.000000E+00  3.510826E+02  7.882491E-03  1.051889E-01
       2   -1    0    0  101    0  0.0000000000E+00  0.0000000000E+00  9.6730121000E+02  9.6730121000E+02  0.0000000000E+00 0. 9.
      -2   -1    0    0    0  101  0.0000000000E+00  0.0000000000E+00 -1.2766853638E+02  1.2766853638E+02  0.0000000000E+00 0. 9.
 1000024    2    1    2    0    0 -3.3098664580E+01  2.2312205894E+02  3.9593714874E+02  5.2917409648E+02  2.6903535800E+02 0. 9.
-1000024    2    1    2    0    0  3.3098664580E+01 -2.2312205894E+02  4.4369552489E+02  5.6579564990E+02  2.6903535800E+02 0. 9.
 1000022    1    3    0    0    0 -3.7865282521E+01  2.2746483917E+02  3.4178543097E+02  4.3199814819E+02  1.2896157000E+02 0. 9.
      24    2    3    0    0    0  4.7666179413E+00 -4.3427802255E+00  5.4151717769E+01  9.7175948295E+01  8.0431188000E+01 0. 9.
 1000022    1    4    0    0    0  1.0126970737E+02 -1.2251929434E+02  2.7616420255E+02  3.4375032280E+02  1.2896157000E+02 0. 9.
     -24    2    4    0    0    0 -6.8171042787E+01 -1.0060276460E+02  1.6753132234E+02  2.2204532710E+02  8.0431188000E+01 0. 9.
     -13    1    6    0    0    0 -2.5351699254E+01 -3.0346427844E+01  1.8124463539E+01  4.3498525039E+01  1.0566000000E-01 0. 9.
      14    1    6    0    0    0  3.0118317195E+01  2.6003647618E+01  3.6027254230E+01  5.3677423256E+01  0.0000000000E+00 0. 9.
       3    1    8    0  102    0 -1.9267279975E+01 -4.1198070997E+01  9.7808520691E+00  4.6523372607E+01  5.0000000000E-01 0. 9.
      -4    1    8    0    0  102 -4.8903762813E+01 -5.9404693600E+01  1.5775047027E+02  1.7552195449E+02  1.5000000000E+00 0. 9.
</event>
<event>
    14   272  1.000000E+00  1.063958E+03  7.982931E-03  9.208470E-02
       1   -1    0    0  101    0  0.0000000000E+00  0.0000000000E+00  9.7110583676E+02  9.7110583676E+02  0.0000000000E+00 0. 9.
       1   -1    0    0  102    0  0.0000000000E+00  0.0000000000E+00 -1.4160434709E+03  1.4160434709E+03  0.0000000000E+00 0. 9.
 2000001    2    1    2  101    0 -3.4990082880E+02  1.6154434268E+02 -7.2433654939E+02  1.2871171234E+03  9.9170554500E+02 0. 9.
 2000001    2    1    2  102    0  3.4990082880E+02 -1.6154434268E+02  2.7939891521E+02  1.1000321843E+03  9.9170554500E+02 0. 9.
 1000021    2    3    0  101  103 -2.6783864653E+02  2.6594314103E+01 -6.1137222670E+02  1.0929348403E+03  8.6503512500E+02 0. 9.
       1    1    3    0  103    0 -8.2062182271E+01  1.3495002858E+02 -1.1296432269E+02  1.9418228311E+02  3.3000000000E-01 0. 9.
 1000021    2    4    0  102  104  3.0620823077E+02 -1.1374184265E+02  1.2559011279E+02  9.3314486082E+02  8.6503512500E+02 0. 9.
       1    1    4    0  104    0  4.3692598029E+01 -4.7802500023E+01  1.5380880241E+02  1.6688732346E+02  3.3000000000E-01 0. 9.
 1000022    1    5    0    0    0 -6.1911601733E+01  9.4717851493E+01  1.1797095758E+01  1.7197318345E+02  1.2896157000E+02 0. 9.
       4    1    5    0  101    0 -6.3994794825E+01  8.8912135026E+01 -6.9026490720E+02  6.9890528230E+02  1.5000000000E+00 0. 9.
      -4    1    5    0    0  103 -1.4193224997E+02 -1.5703567242E+02  6.7095584742E+01  2.2205637457E+02  1.5000000000E+00 0. 9.
 1000022    1    7    0    0    0 -8.3692332057E+00  1.5691668233E+02 -5.3153860077E+01  2.1011736871E+02  1.2896157000E+02 0. 9.
       2    1    7    0  102    0  7.6548377973E+01  6.4599197008E+01 -1.6102983954E+02  1.8964026088E+02  3.3000000000E-01 0. 9.
      -2    1    7    0    0  104  2.3802908601E+02 -3.3525772199E+02  3.3977381241E+02  5.3338723123E+02  3.3000000000E-01 0. 9.
</event>
<event>
    17   258  1.000000E+00  1.140405E+03  7.989302E-03  9.137233E-02
      21   -1    0    0  101  102  0.0000000000E+00  0.0000000000E+00  5.8487137644E+02  5.8487137644E+02  0.0000000000E+00 0. 9.
       2   -1    0    0  102    0  0.0000000000E+00  0.0000000000E+00 -2.5029203253E+03  2.5029203253E+03  0.0000000000E+00 0. 9.
 1000021    2    1    2  101  103 -4.6684126835E+02 -4.6572249150E+02 -4.0111447498E+02  1.1593173847E+03  8.6503512500E+02 0. 9.
 1000002    2    1    2  103    0  4.6684126835E+02  4.6572249150E+02 -1.5169344739E+03  1.9284743171E+03  9.9150632100E+02 0. 9.
-1000024    2    3    0    0    0 -1.5808979458E+02 -1.9790427828E+02 -4.8564609433E+02  6.1023818244E+02  2.6903535800E+02 0. 9.
       4    1    3    0  101    0 -1.1714754109E+02 -4.3955447821E+00 -1.1733065494E+02  1.6586621050E+02  1.5000000000E+00 0. 9.
      -3    1    3    0    0  103 -1.9160393269E+02 -2.6342266844E+02  2.0186227429E+02  3.8321299176E+02  5.0000000000E-01 0. 9.
 1000024    2    4    0    0    0  5.9221688391E+02  5.1449625260E+02 -6.5689936544E+02  1.0579811112E+03  2.6903535800E+02 0. 9.
       1    1    4    0  103    0 -1.2537561557E+02 -4.8773761102E+01 -8.6003510846E+02  8.7049320585E+02  3.3000000000E-01 0. 9.
 1000022    1    5    0    0    0 -1.1468994304E+02 -1.2712900007E+02 -4.3314262949E+02  4.8327961856E+02  1.2896157000E+02 0. 9.
     -24    2    5    0    0    0 -4.3399851538E+01 -7.0775278207E+01 -5.2503464839E+01  1.2695856388E+02  8.0431188000E+01 0. 9.
 1000022    1    8    0    0    0  2.4721363436E+02  1.3505300536E+02 -2.6186387560E+02  4.0565708567E+02  1.2896157000E+02 0. 9.
      24    2    8    0    0    0  3.4500324955E+02  3.7944324724E+02 -3.9503548984E+02  6.5232402555E+02  8.0431188000E+01 0. 9.
       3    1   11    0  104    0 -1.9718523277E+01 -7.8753717962E+01 -5.9857072185E+01  1.0086668104E+02  5.0000000000E-01 0. 9.
      -4    1   11    0    0  104 -2.3681328261E+01  7.9784397550E+00  7.3536073463E+00  2.6091882840E+01  1.5000000000E+00 0. 9.
      -3    1   13    0    0  105  1.6126907495E+02  1.4450294140E+02 -2.0811314158E+02  3.0033338859E+02  5.0000000000E-01 0. 9.
       4    1   13    0  105    0  1.8373417461E+02  2.3494030584E+02 -1.8692234826E+02  3.5199063696E+02  1.5000000000E+00 0. 9.
</event>
<event>
    12   226  1.000000E+00  2.735404E+02  7.860230E-03  1.086699E-01
       2   -1    0    0  101    0  0.0000000000E+00  0.0000000000E+00  1.3608086332E+03  1.3608086332E+03  0.0000000000E+00 0. 9.
      -2   -1    0    0    0  101  0.0000000000E+00  0.0000000000E+00 -6.2624236895E+01  6.2624236895E+01  0.0000000000E+00 0. 9.
 1000024    2    1    2    0    0 -9.7515775116E+00  4.8468721987E+01  8.9766584865E+02  9.3841798254E+02  2.6903535800E+02 0. 9.
-1000024    2    1    2    0    0  9.7515775116E+00 -4.8468721987E+01  4.0051854764E+02  4.8501488754E+02  2.6903535800E+02 0. 9.
 1000022    1    3    0    0    0 -7.0674857865E+01  3.7949720542E+01  6.9946342872E+02  7.1576203551E+02  1.2896157000E+02 0. 9.
      24    2    3    0    0    0  6.0923280353E+01  1.0519001444E+01  1.9820241993E+02  2.2265594703E+02  8.0431188000E+01 0. 9.
 1000022    1    4    0    0    0  5.5068125839E+01  1.7127601396E+01  3.0772894627E+02  3.3860603084E+02  1.2896157000E+02 0. 9.
     -24    2    4    0    0    0 -4.5316548327E+01 -6.5596323383E+01  9.2789601373E+01  1.4640885670E+02  8.0431188000E+01 0. 9.
      -3    1    6    0    0  102  7.8404560850E+01  1.9325717142E+01  1.7100941850E+02  1.8911697364E+02  5.0000000000E-01 0. 9.
       4    1    6    0  102    0 -1.7481280497E+01 -8.8067156972E+00  2.7193001429E+01  3.3538973388E+01  1.5000000000E+00 0. 9.
       3    1    8    0  103    0 -6.8582968103E+01 -5.0567685004E+01  6.5286035820E+01  1.0734631225E+02  5.0000000000E-01 0. 9.
      -4    1    8    0    0  103  2.3266419775E+01 -1.5028638379E+01  2.7503565553E+01  3.9062544449E+01  1.5000000000E+00 0. 9.
</event>
<event>
    19   241  1.000000E+00  1.019319E+03  7.979001E-03  9.253033E-02
      -1   -1    0    0    0  101  0.0000000000E+00  0.0000000000E+00  7.6353065691E+02  7.6353065691E+02  0.0000000000E+00 0. 9.
       2   -1    0    0  102    0  0.0000000000E+00  0.0000000000E+00 -1.3658400625E+03  1.3658400625E+03  0.0000000000E+00 0. 9.
 1000021    2    1    2  102  101  3.4091976844E+02 -7.1585710118E+02 -1.6570781115E+02  1.1850833405E+03  8.6503512500E+02 0. 9.
 1000024    2    1    2    0    0 -3.4091976844E+02  7.1585710118E+02 -4.3660159445E+02  9.4428737890E+02  2.6903535800E+02 0. 9.
-1000024    2    3    0    0    0  1.5053797525E+02 -7.7195215016E+01 -1.2393303270E+02  3.4111611463E+02  2.6903535800E+02 0. 9.
       6    2    3    0  102    0 -1.0798790074E+02 -3.8053424336E+02  6.1350091314E+01  4.3615337988E+02  1.7320000000E+02 0. 9.
      -5    1    3    0    0  101  2.9836969392E+02 -2.5812764280E+02 -1.0312486977E+02  4.0781384601E+02  4.8000000000E+00 0. 9.
 1000022    1    4    0    0    0 -1.7634610680E+02  5.2415035317E+02 -2.5235217684E+02  6.2140506097E+02  1.2896157000E+02 0. 9.
      24    2    4    0    0    0 -1.6457366164E+02  1.9170674801E+02 -1.8424941761E+02  3.2288231793E+02  8.0431188000E+01 0. 9.
 1000022    1    5    0    0    0  1.0689311223E+02  3.3842615319E+01 -4.3763256942E+01  1.7640229378E+02  1.2896157000E+02 0. 9.
     -24    2    5    0    0    0  4.3644863019E+01 -1.1103783033E+02 -8.0169775756E+01  1.6471382086E+02  8.0431188000E+01 0. 9.
      24    2    6    0    0    0 -9.2815381446E+01 -1.5527594904E+02  7.0484778744E+01  2.1014898387E+02  8.0431188000E+01 0. 9.
       5    1    6    0  102    0 -1.5172519292E+01 -2.2525829432E+02 -9.1346874306E+00  2.2600439601E+02  4.8000000000E+00 0. 9.
      -3    1    9    0    0  103 -2.1566076511E+01 -4.5674943401E+00 -1.9355783267E+01  2.9340313675E+01  5.0000000000E-01 0. 9.
       4    1    9    0  103    0 -1.4300758513E+02  1.9627424235E+02 -1.6489363434E+02  2.9354200425E+02  1.5000000000E+00 0. 9.
       3    1   11    0  104    0 -2.5040320267E+00  8.2169813135E+00  6.0174605522E+00  1.0499942371E+01  5.0000000000E-01 0. 9.
      -4    1   11    0    0  104  4.6148895046E+01 -1.1925481165E+02 -8.6187236309E+01  1.5421387849E+02  1.5000000000E+00 0. 9.
      -3    1   12    0    0  105 -4.7168587815E+01 -1.0651107124E+02  5.0006034449E+00  1.1659648369E+02  5.0000000000E-01 0. 9.
       4    1   12    0  105    0 -4.5646793631E+01 -4.8764877800E+01  6.5484175300E+01  9.3552500182E+01  1.5000000000E+00 0. 9.
</event>
<event>
    21   258  1.000000E+00  9.765514E+02  7.975074E-03  9.298029E-02
       2   -1    0    0  101    0  0.0000000000E+00  0.0000000000E+00  1.6609808415E+03  1.6609808415E+03  0.0000000000E+00 0. 9.
      21   -1    0    0  102  101  0.0000000000E+00  0.0000000000E+00 -8.7205552505E+02  8.7205552505E+02  0.0000000000E+00 0. 9.
 1000002    2    1    2  103    0  1.8031577174E+02  2.3548583638E+02  1.1524756921E+03  1.5489520206E+03  9.9150632100E+02 0. 9.
 1000021    2    1    2  102  103 -1.8031577174E+02 -2.3548583638E+02 -3.6355037571E+02  9.8408434589E+02  8.6503512500E+02 0. 9.
 1000024    2    3    0    0    0 -2.5216027153E+02 -1.9926125720E+02  5.2196310875E+02  6.6941419309E+02  2.6903535800E+02 0. 9.
       1    1    3    0  103    0  4.3247604327E+02  4.3474709357E+02  6.3051258337E+02  8.7953782753E+02  3.3000000000E-01 0. 9.
 1000024    2    4    0    0    0 -9.5264770807E+01  1.8851516373E+02 -2.2047924863E+01  3.4275279482E+02  2.6903535800E+02 0. 9.
      -6    2    4    0    0  103 -8.4323197418E+01 -1.5558231879E+02 -6.5141809320E+01  2.5604287700E+02  1.7320000000E+02 0. 9.
       5    1    4    0  102    0 -7.2780351474E-01 -2.6841868132E+02 -2.7636064153E+02  3.8528867407E+02  4.8000000000E+00 0. 9.
 1000022    1    5    0    0    0 -7.7807859786E+01 -1.3489587389E+02  3.4784669319E+02  4.0234235216E+02  1.2896157000E+02 0. 9.
      24    2    5    0    0    0 -1.7435241174E+02 -6.4365383308E+01  1.7411641556E+02  2.6707184093E+02  8.0431188000E+01 0. 9.
 1000022    1    7    0    0    0 -5.0995645802E+01  1.8439805724E+02 -6.7263719321E+01  2.4033038484E+02  1.2896157000E+02 0. 9.
      24    2    7    0    0    0 -4.4269125004E+01  4.1171064912E+00  4.5215794457E+01  1.0242240998E+02  8.0431188000E+01 0. 9.
     -24    2    8    0    0    0 -4.6200474313E+01 -1.6820580776E+02 -8.6090067722E+01  2.1049549485E+02  8.0431188000E+01 0. 9.
      -5    1    8    0    0  103 -3.8122723105E+01  1.2623488967E+01  2.0948258402E+01  4.5547382150E+01  4.8000000000E+00 0. 9.
     -13    1   11    0    0    0 -1.5505354894E+01 -3.4063836954E+01  1.5356623400E+01  4.0454889256E+01  1.0566000000E-01 0. 9.
      14    1   11    0    0    0 -1.5884705685E+02 -3.0301546354E+01  1.5875979216E+02  2.2661695168E+02  0.0000000000E+00 0. 9.
      -1    1   13    0    0  104 -5.8067211790E+01 -2.0682680414E+01  2.1020533640E+01  6.5127153236E+01  3.3000000000E-01 0. 9.
       2    1   13    0  104    0  1.3798086786E+01  2.4799786905E+01  2.4195260818E+01  3.7295256743E+01  3.3000000000E-01 0. 9.
      11    1   14    0    0    0 -4.8207465267E+00 -1.2588329684E+02 -8.3720427264E+01  1.5125790546E+02  5.1000000000E-04 0. 9.
     -12    1   14    0    0    0 -4.1379727786E+01 -4.2322510912E+01 -2.3696404578E+00  5.9237589396E+01  0.0000000000E+00 0. 9.
</event>
<event>
    12   226  1.000000E+00  3.219217E+02  7.874742E-03  1.063728E-01
       2   -1    0    0  101    0  0.0000000000E+00  0.0000000000E+00  6.2833861983E+02  6.2833861983E+02  0.0000000000E+00 0. 9.
      -2   -1    0    0    0  101  0.0000000000E+00  0.0000000000E+00 -1.6506487340E+02  1.6506487340E+02  0.0000000000E+00 0. 9.
 1000024    2    1    2    0    0 -1.6348866343E+02 -6.7268452665E+01  2.2041308804E+02  3.9014810140E+02  2.6903535800E+02 0. 9.
-1000024    2    1    2    0    0  1.6348866343E+02  6.7268452665E+01  2.4286065839E+02  4.0325539183E+02  2.6903535800E+02 0. 9.
 1000022    1    3    0    0    0 -1.5397283261E+02 -1.0726731043E+02  1.8402745744E+02  2.9276458238E+02  1.2896157000E+02 0. 9.
      24    2    3    0    0    0 -9.5158308161E+00  3.9998857766E+01  3.6385630595E+01  9.7383519014E+01  8.0431188000E+01 0. 9.
 1000022    1    4    0    0    0  2.6618024293E+00  2.5457878605E+01  6.4075544802E+01  1.4625987404E+02  1.2896157000E+02 0. 9.
     -24    2    4    0    0    0  1.6082686100E+02  4.1810574060E+01  1.7878511359E+02  2.5699551779E+02  8.0431188000E+01 0. 9.
      -3    1    6    0    0  102  1.7265674250E+01 -9.0605956638E+00 -1.2454965891E+01  2.3142473429E+01  5.0000000000E-01 0. 9.
       4    1    6    0  102    0 -2.6781505066E+01  4.9059453430E+01  4.8840596486E+01  7.4241045585E+01  1.5000000000E+00 0. 9.
      11    1    8    0    0    0  6.0121931499E+01 -2.3507958119E+01  6.4627987528E+01  9.1345758053E+01  5.1000000000E-04 0. 9.
     -12    1    8    0    0    0  1.0070492950E+02  6.5318532180E+01  1.1415712606E+02  1.6564975974E+02  0.0000000000E+00 0. 9.
</event>
<event>
    22   272  1.000000E+00  1.008905E+03  7.978060E-03  9.263773E-02
       1   -1    0    0  101    0  0.0000000000E+00  0.0000000000E+00  1.5217799903E+03  1.5217799903E+03  0.0000000000E+00 0. 9.
       2   -1    0    0  102    0  0.0000000000E+00  0.0000000000E+00 -7.7590797251E+02  7.7590797251E+02  0.0000000000E+00 0. 9.
 2000001    2    1    2  102    0 -1.6461079669E+02 -8.7842301418E+01  7.9967972220E+02  1.2875482633E+03  9.9170554500E+02 0. 9.
 2000002    2    1    2  101    0  1.6461079669E+02  8.7842301418E+01 -5.3807704370E+01  1.0101396995E+03  9.9129912700E+02 0. 9.
 1000021    2    3    0  102  103 -3.9148913174E+01 -1.3054657648E+02  7.1211708717E+02  1.1287034860E+03  8.6503512500E+02 0. 9.
       1    1    3    0  103    0 -1.2546188351E+02  4.2704275059E+01  8.7562635027E+01  1.5884477730E+02  3.3000000000E-01 0. 9.
 1000021    2    4    0  101  104  1.3586122793E+02  1.7250140215E+02 -1.1777299389E+02  9.0020622780E+02  8.6503512500E+02 0. 9.
       2    1    4    0  104    0  2.8749568756E+01 -8.4659100735E+01  6.3965289517E+01  1.0993347172E+02  3.3000000000E-01 0. 9.
 1000024    2    5    0    0    0 -1.7467929049E+01 -5.5491691104E+01 -8.8566032916E+01  2.8915121021E+02  2.6903535800E+02 0. 9.
      -4    1    5    0    0  103  1.4888891459E+00  7.8690853609E+01  4.3689974280E+02  4.4393479532E+02  1.5000000000E+00 0. 9.
       3    1    5    0  102    0 -2.3169873270E+01 -1.5374573898E+02  3.6378337728E+02  3.9561748049E+02  5.0000000000E-01 0. 9.
 1000024    2    7    0    0    0  1.7632293417E+02 -1.3257801125E+02 -2.6375246944E+02  4.3659145110E+02  2.6903535800E+02 0. 9.
      -2    1    7    0    0  104 -7.6906003281E-01  4.1297654746E+01  1.8896060019E+02  1.9342260743E+02  3.3000000000E-01 0. 9.
       1    1    7    0  101    0 -3.9692646204E+01  2.6378175866E+02 -4.2981124634E+01  2.7019216928E+02  3.3000000000E-01 0. 9.
 1000022    1    9    0    0    0 -7.0501473197E+01  2.4332549997E+01 -3.4875063607E+01  1.5300289968E+02  1.2896157000E+02 0. 9.
      24    2    9    0    0    0  5.3033544148E+01 -7.9824241101E+01 -5.3690969308E+01  1.3614831053E+02  8.0431188000E+01 0. 9.
 1000022    1   12    0    0    0  7.6740963838E+01 -1.3904392789E+02 -9.7383570370E+01  2.2657677667E+02  1.2896157000E+02 0. 9.
      24    2   12    0    0    0  9.9581970329E+01  6.4659166330E+00 -1.6636889907E+02  2.1001467442E+02  8.0431188000E+01 0. 9.
     -15    1   16    0    0    0 -1.6001247178E+01 -4.4968354388E+01 -2.1552925954E+01  5.2401136951E+01  1.7770000000E+00 0. 9.
      16    1   16    0    0    0  6.9034791326E+01 -3.4855886713E+01 -3.2138043355E+01  8.3747173580E+01  0.0000000000E+00 0. 9.
     -11    1   18    0    0    0  1.8332225079E+01  4.0573292547E+00 -1.0879935464E+02  1.1040757206E+02  5.1000000000E-04 0. 9.
      12    1   18    0    0    0  8.1249745249E+01  2.4085873783E+00 -5.7569544431E+01  9.9607102369E+01  0.0000000000E+00 0. 9.
</event>
<event>
    12   226  1.000000E+00  2.831770E+02  7.863310E-03  1.081733E-01
       2   -1    0    0  101    0  0.0000000000E+00  0.0000000000E+00  7.9079147246E+02  7.9079147246E+02  0.0000000000E+00 0. 9.
      -2   -1    0    0    0  101  0.0000000000E+00  0.0000000000E+00 -1.0428849241E+02  1.0428849241E+02  0.0000000000E+00 0. 9.
 1000024    2    1    2    0    0  2.8446184572E+01  8.3666112883E+01  4.1768465818E+02  5.0462828041E+02  2.6903535800E+02 0. 9.
-1000024    2    1    2    0    0 -2.8446184572E+01 -8.3666112883E+01  2.6881832188E+02  3.9045168446E+02  2.6903535800E+02 0. 9.
 1000022    1    3    0    0    0 -1.5140732438E+01  1.2688818901E+02  2.5443838188E+02  3.1256972182E+02  1.2896157000E+02 0. 9.
      24    2    3    0    0    0  4.3586917010E+01 -4.3222076131E+01  1.6324627630E+02  1.9205855859E+02  8.0431188000E+01 0. 9.
 1000022    1    4    0    0    0 -7.2894135889E+01 -1.0907879382E+02  2.0644030805E+02  2.7651478376E+02  1.2896157000E+02 0. 9.
     -24    2    4    0    0    0  4.4447951318E+01  2.5412680942E+01  6.2378013826E+01  1.1393690070E+02  8.0431188000E+01 0. 9.
      -1    1    6    0    0  102  1.8186657246E+01  1.3774420710E+00 -2.6232275623E+00  1.8429380654E+01  3.3000000000E-01 0. 9.
       2    1    6    0  102    0  2.5400259764E+01 -4.4599518202E+01  1.6586950386E+02  1.7362917793E+02  3.3000000000E-01 0. 9.
       1    1    8    0  103    0  9.8149128177E-01 -2.5616343781E+01  5.9577562953E+00  2.6320413255E+01  3.3000000000E-01 0. 9.
      -2    1    8    0    0  103  4.3466460036E+01  5.1029024723E+01  5.6420257530E+01  8.7616487444E+01  3.3000000000E-01 0. 9.
</event>
<event>
    12   230  1.000000E+00  3.382207E+02  7.879154E-03  1.056952E-01
       2   -1    0    0  101    0  0.0000000000E+00  0.0000000000E+00  1.3689993832E+03  1.3689993832E+03  0.0000000000E+00 0. 9.
      -1   -1    0    0    0  101  0.0000000000E+00  0.0000000000E+00 -8.6427360695E+01  8.6427360695E+01  0.0000000000E+00 0. 9.
 1000024    2    1    2    0    0  1.8663977476E+02 -8.4953889379E+01  7.7394473107E+02  8.4464314325E+02  2.6903535800E+02 0. 9.
 1000023    2    1    2    0    0 -1.8663977476E+02  8.4953889379E+01  5.0862729147E+02  6.1078360068E+02  2.6889276000E+02 0. 9.
 1000022    1    3    0    0    0  1.4009777088E+02 -1.0905481339E+02  6.6067755774E+02  6.9616539671E+02  1.2896157000E+02 0. 9.
      24    2    3    0    0    0  4.6542003884E+01  2.4100924014E+01  1.1326717333E+02  1.4847774655E+02  8.0431188000E+01 0. 9.
 1000022    1    4    0    0    0 -8.3876735910E+01  6.3943448092E+00  2.7374868939E+02  3.1407901227E+02  1.2896157000E+02 0. 9.
      25    2    4    0    0    0 -1.0276303885E+02  7.8559544570E+01  2.3487860209E+02  2.9670458841E+02  1.2701893900E+02 0. 9.
      -3    1    6    0    0  102 -2.0157135189E+01  8.0985530738E+00  8.6864980227E+00  2.3400895470E+01  5.0000000000E-01 0. 9.
       4    1    6    0  102    0  6.6699139073E+01  1.6002370940E+01  1.0458067530E+02  1.2507685108E+02  1.5000000000E+00 0. 9.
       5    1    8    0  103    0 -4.2941536431E+01 -3.2693427202E+01  8.2757922973E+01  9.8917892962E+01  4.8000000000E+00 0. 9.
      -5    1    8    0    0  103 -5.9821502423E+01  1.1125297177E+02  1.5212067911E+02  1.9778669544E+02  4.8000000000E+00 0. 9.
</event>
<event>
    24   259  1.000000E+00  1.399272E+03  8.008145E-03  8.933481E-02
      21   -1    0    0  101  102  0.0000000000E+00  0.0000000000E+00  9.8886308538E+02  9.8886308538E+02  0.0000000000E+00 0. 9.
       1   -1    0    0  102    0  0.0000000000E+00  0.0000000000E+00 -2.0474456296E+03  2.0474456296E+03  0.0000000000E+00 0. 9.
 1000021    2    1    2  101  103  6.9494176984E+02  7.8047119379E+02 -2.3490061875E+02  1.3767873532E+03  8.6503512500E+02 0. 9.
 2000001    2    1    2  103    0 -6.9494176984E+02 -7.8047119379E+02 -8.2368192544E+02  1.6595213617E+03  9.9170554500E+02 0. 9.
-1000024    2    3    0    0    0  1.8994184184E+02  3.7570921164E+02 -1.5263970295E+02  5.2241192345E+02  2.6903535800E+02 0. 9.
       6    2    3    0  101    0  4.7614083172E+01 -6.8419827726E+01 -1.4076566051E+01  1.9272976795E+02  1.7320000000E+02 0. 9.
      -5    1    3    0    0  103  4.5738584484E+02  4.7318180988E+02 -6.8184349756E+01  6.6164566182E+02  4.8000000000E+00 0. 9.
 1000021    2    4    0  103  104 -7.0955566005E+02 -8.1375545628E+02 -8.4124349620E+02  1.6191490249E+03  8.6503512500E+02 0. 9.
       1    1    4    0  104    0  1.4613890207E+01  3.3284262495E+01  1.7561570769E+01  4.0372336874E+01  3.3000000000E-01 0. 9.
 1000022    1    5    0    0    0  2.0513815215E+02  2.9097050438E+02 -9.0945224532E+01  3.8941958899E+02  1.2896157000E+02 0. 9.
     -24    2    5    0    0    0 -1.5196310311E+01  8.4738707255E+01 -6.1694478416E+01  1.3299233446E+02  8.0431188000E+01 0. 9.
      24    2    6    0    0    0  3.6123164150E+01 -1.0176493617E+02 -4.8592596032E+01  1.4314818062E+02  8.0431188000E+01 0. 9.
       5    1    6    0  101    0  1.1490919022E+01  3.3345108441E+01  3.4516029981E+01  4.9581587334E+01  4.8000000000E+00 0. 9.
 1000024    2    8    0    0    0 -2.5435735429E+02 -6.5120752149E+02 -2.3513705589E+02  7.8513588546E+02  2.6903535800E+02 0. 9.
      -4    1    8    0    0  104 -2.5226264906E+02  4.5340007753E+01 -1.6163564589E+02  3.0301896382E+02  1.5000000000E+00 0. 9.
       3    1    8    0  103    0 -2.0293565670E+02 -2.0788794255E+02 -4.4447079442E+02  5.3099417559E+02  5.0000000000E-01 0. 9.
       1    1   11    0  105    0  4.5992945597E+00  1.7412153553E+01 -6.0159682471E+01  6.2798351068E+01  3.3000000000E-01 0. 9.
      -2    1   11    0    0  105 -1.9795604871E+01  6.7326553702E+01 -1.5347959452E+00  7.0193983390E+01  3.3000000000E-01 0. 9.
     -11    1   12    0    0    0 -2.1077159373E+01 -1.1291609747E+01 -2.2814292914E+01  3.3049040218E+01  5.1000000000E-04 0. 9.
      12    1   12    0    0    0  5.7200323523E+01 -9.0473326420E+01 -2.5778303118E+01  1.1009914040E+02  0.0000000000E+00 0. 9.
 1000022    1   14    0    0    0 -7.7139207556E+01 -3.9258225094E+02 -1.7784949824E+02  4.5643489312E+02  1.2896157000E+02 0. 9.
      24    2   14    0    0    0 -1.7721814674E+02 -2.5862527055E+02 -5.7287557650E+01  3.2870099234E+02  8.0431188000E+01 0. 9.
     -11    1   22    0    0    0 -5.1848065226E-01 -2.6249657953E+01  1.1683939591E+01  2.8737219933E+01  5.1000000000E-04 0. 9.
      12    1   22    0    0    0 -1.7669966609E+02 -2.3237561259E+02 -6.8971497241E+01  2.9996377240E+02  0.0000000000E+00 0. 9.
</event>
<event>
    12   226  1.000000E+00  3.747016E+02  7.888319E-03  1.043171E-01
      -2   -1    0    0    0  101  0.0000000000E+00  0.0000000000E+00  1.9319176379E+02  1.9319176379E+02  0.0000000000E+00 0. 9.
       2   -1    0    0  101    0  0.0000000000E+00  0.0000000000E+00 -7.2680016363E+02  7.2680016363E+02  0.0000000000E+00 0. 9.
-1000024    2    1    2    0    0 -5.7917995739E+00  2.6074460759E+02 -2.6282895007E+02  4.5769026227E+02  2.6903535800E+02 0. 9.
 1000024    2    1    2    0    0  5.7917995739E+00 -2.6074460759E+02 -2.7077944977E+02  4.6230166515E+02  2.6903535800E+02 0. 9.
 1000022    1    3    0    0    0 -1.8880701400E+01  2.2792883036E+02 -1.1701353464E+02  2.8745658180E+02  1.2896157000E+02 0. 9.
     -24    2    3    0    0    0  1.3088901826E+01  3.2815777224E+01 -1.4581541543E+02  1.7023368046E+02  8.0431188000E+01 0. 9.
 1000022    1    4    0    0    0 -2.4225250864E+01 -1.9541974504E+02 -2.6474559414E+02  3.5425563607E+02  1.2896157000E+02 0. 9.
      24    2    4    0    0    0  3.0017050438E+01 -6.5324862545E+01 -6.0338556288E+00  1.0804602908E+02  8.0431188000E+01 0. 9.
       3    1    6    0  102    0  4.2790086413E+01  6.1674674039E+00 -1.0289950992E+02  1.1161356679E+02  5.0000000000E-01 0. 9.
      -4    1    6    0    0  102 -2.9701184587E+01  2.6648309820E+01 -4.2915905505E+01  5.8620113676E+01  1.5000000000E+00 0. 9.
     -11    1    8    0    0    0 -2.7378150527E+01 -2.7848120767E+01  1.5337183291E+00  3.9082390520E+01  5.1000000000E-04 0. 9.
      12    1    8    0    0    0  5.7395200965E+01 -3.7476741778E+01 -7.5675739579E+00  6.8963638562E+01  0.0000000000E+00 0. 9.
</event>
<event>
    24   258  1.000000E+00  9.498616E+02  7.972538E-03  9.327354E-02
       1   -1    0    0  101    0  0.0000000000E+00  0.0000000000E+00  1.5304366539E+03  1.5304366539E+03  0.0000000000E+00 0. 9.
      21   -1    0    0  102  101  0.0000000000E+00  0.0000000000E+00 -6.2393304164E+02  6.2393304164E+02  0.0000000000E+00 0. 9.
 1000001    2    1    2  103    0  4.3261423938E+01  1.7857024274E+02  7.4364878876E+02  1.2551665241E+03  9.9431916400E+02 0. 9.
 1000021    2    1    2  102  103 -4.3261423938E+01 -1.7857024274E+02  1.6285482348E+02  8.9920317137E+02  8.6503512500E+02 0. 9.
 1000021    2    3    0  103  104  1.0960598188E+02  1.1805546379E+02  5.3947774412E+02  1.0321204231E+03  8.6503512500E+02 0. 9.
       1    1    3    0  104    0 -6.6344557945E+01  6.0514778956E+01  2.0417104464E+02  2.2304610109E+02  3.3000000000E-01 0. 9.
-1000024    2    4    0    0    0  6.0426775140E+01 -3.1594820965E+02 -3.0471626342E+01  4.2045595512E+02  2.6903535800E+02 0. 9.
       2    1    4    0  102    0 -2.5548985406E+02  1.2575520064E+02  1.1068210910E+02  3.0551607845E+02  3.3000000000E-01 0. 9.
      -1    1    4    0    0  103  1.5180165498E+02  1.1622766263E+01  8.2644340724E+01  1.7323113780E+02  3.3000000000E-01 0. 9.
-1000024    2    5    0    0    0  7.0710002672E+01 -3.6550034420E+01  7.4949434524E+01  2.9040187858E+02  2.6903535800E+02 0. 9.
       6    2    5    0  103    0  1.0431078089E+02  2.1876312560E+02  5.4407503321E+02  6.2028535844E+02  1.7320000000E+02 0. 9.
      -5    1    5    0    0  104 -6.5414801683E+01 -6.4157627394E+01 -7.9546723611E+01  1.2143318603E+02  4.8000000000E+00 0. 9.
 1000022    1    7    0    0    0  9.5140274572E+00 -8.0811961223E+01  3.9090660639E+01  1.5741745799E+02  1.2896157000E+02 0. 9.
     -24    2    7    0    0    0  5.0912747683E+01 -2.3513624842E+02 -6.9562286981E+01  2.6303849713E+02  8.0431188000E+01 0. 9.
 1000022    1   10    0    0    0  1.4093137494E+01  5.5390656431E+01  1.1403142636E+01  1.4151982032E+02  1.2896157000E+02 0. 9.
     -24    2   10    0    0    0  5.6616865178E+01 -9.1940690851E+01  6.3546291888E+01  1.4888205826E+02  8.0431188000E+01 0. 9.
      24    2   11    0    0    0  1.0208827762E+02  1.9910334328E+02  5.4990619374E+02  5.9910779969E+02  8.0431188000E+01 0. 9.
       5    1   11    0  103    0  2.2225032705E+00  1.9659782317E+01 -5.8311605276E+00  2.1177558751E+01  4.8000000000E+00 0. 9.
       1    1   14    0  105    0  2.2110157376E+01 -1.4112161647E+02 -4.3764581632E-01  1.4284421630E+02  3.3000000000E-01 0. 9.
      -2    1   14    0    0  105  2.8802590307E+01 -9.4014631948E+01 -6.9124641164E+01  1.2019428083E+02  3.3000000000E-01 0. 9.
       3    1   16    0  106    0  4.2437554400E+01 -1.0213713252E+02  6.9195220439E+01  1.3046519994E+02  5.0000000000E-01 0. 9.
      -4    1   16    0    0  106  1.4179310778E+01  1.0196441669E+01 -5.6489285513E+00  1.8416858326E+01  1.5000000000E+00 0. 9.
     -11    1   17    0    0    0  6.7566510344E+01  9.2387918531E+01  1.8683968927E+02  2.1911145633E+02  5.1000000000E-04 0. 9.
      12    1   17    0    0    0  3.4521767279E+01  1.0671542475E+02  3.6306650447E+02  3.7999634336E+02  0.0000000000E+00 0. 9.
</event>
<event>
    28   258  1.000000E+00  9.823372E+02  7.975615E-03  9.291802E-02
      21   -1    0    0  101  102  0.0000000000E+00  0.0000000000E+00  6.8957370879E+02  6.8957370879E+02  0.0000000000E+00 0. 9.
       2   -1    0    0  102    0  0.0000000000E+00  0.0000000000E+00 -1.5843679596E+03  1.5843679596E+03  0.0000000000E+00 0. 9.
 1000021    2    1    2  101  103 -1.6108112289E+02 -2.7083943136E+02 -3.0100546763E+01  9.2113676299E+02  8.6503512500E+02 0. 9.
 1000002    2    1    2  103    0  1.6108112289E+02  2.7083943136E+02 -8.6469370409E+02  1.3528049055E+03  9.9150632100E+02 0. 9.
-1000024    2    3    0    0    0  2.3504926509E+02 -1.4572047582E+02 -6.5498915121E+01  3.9134734677E+02  2.6903535800E+02 0. 9.
       6    2    3    0  101    0 -3.8519895290E+02 -3.5500869327E+01  7.6145488316E+01  4.3062155128E+02  1.7320000000E+02 0. 9.
      -5    1    3    0    0  103 -1.0931435077E+01 -8.9618086217E+01 -4.0747119958E+01  9.9167864931E+01  4.8000000000E+00 0. 9.
 1000021    2    4    0  103  104  6.1146435121E+01  2.7270214554E+02 -8.6206810297E+02  1.2528178353E+03  8.6503512500E+02 0. 9.
       2    1    4    0  104    0  9.9934687771E+01 -1.8627141733E+00 -2.6256011237E+00  9.9987070190E+01  3.3000000000E-01 0. 9.
 1000022    1    5    0    0    0  1.1543985970E+02 -1.6365720636E+02 -6.1626260875E+01  2.4604659105E+02  1.2896157000E+02 0. 9.
     -24    2    5    0    0    0  1.1960940539E+02  1.7936730542E+01 -3.8726542458E+00  1.4530075572E+02  8.0431188000E+01 0. 9.
      24    2    6    0    0    0 -3.0661405417E+02  1.9973151390E+01  1.8016300130E+01  3.1812712563E+02  8.0431188000E+01 0. 9.
       5    1    6    0  101    0 -7.8584898733E+01 -5.5474020717E+01  5.8129188186E+01  1.1249442565E+02  4.8000000000E+00 0. 9.
 1000024    2    8    0    0    0  9.1241801646E-01 -9.4870756702E+01 -3.6953563023E+02  4.6683819343E+02  2.6903535800E+02 0. 9.
      -6    2    8    0    0  104 -1.2567627426E+02  3.5963433406E+02 -2.8030515031E+02  5.0368700344E+02  1.7320000000E+02 0. 9.
       5    1    8    0  103    0  1.8591029137E+02  7.9385681805E+00 -2.1222732243E+02  2.8229263839E+02  4.8000000000E+00 0. 9.
       1    1   11    0  105    0  1.2490992468E+02  3.0782895379E+01  5.1123453092E+00  1.2874906177E+02  3.3000000000E-01 0. 9.
      -2    1   11    0    0  105 -5.3005192927E+00 -1.2846164837E+01 -8.9849995550E+00  1.6551693955E+01  3.3000000000E-01 0. 9.
      -1    1   12    0    0  106 -8.6601192171E+01  1.8617721376E+01  3.9648511664E+01  9.7048953688E+01  3.3000000000E-01 0. 9.
       2    1   12    0  106    0 -2.2001286200E+02  1.3554300137E+00 -2.1632211534E+01  2.2107817195E+02  3.3000000000E-01 0. 9.
 1000022    1   14    0    0    0 -6.5275155176E+01 -5.7062133835E+01 -2.9458263715E+02  3.3305697658E+02  1.2896157000E+02 0. 9.
      24    2   14    0    0    0  6.6187573193E+01 -3.7808622867E+01 -7.4952993083E+01  1.3378121686E+02  8.0431188000E+01 0. 9.
     -24    2   15    0    0    0 -1.6416479152E+01  1.6237249936E+02 -1.8295900698E+02  2.5802616839E+02  8.0431188000E+01 0. 9.
      -5    1   15    0    0  104 -1.0925979511E+02  1.9726183470E+02 -9.7346143323E+01  2.4566083505E+02  4.8000000000E+00 0. 9.
      -3    1   22    0    0  107  6.5451158021E+01 -8.0849141482E+00 -7.9899828994E+01  1.0360237737E+02  5.0000000000E-01 0. 9.
       4    1   22    0  107    0  7.3641517216E-01 -2.9723708719E+01  4.9468359109E+00  3.0178839488E+01  1.5000000000E+00 0. 9.
       3    1   23    0  108    0 -2.0751936127E+01  1.2979072141E+01 -3.9091405670E+00  2.4791743517E+01  5.0000000000E-01 0. 9.
      -4    1   23    0    0  108  4.3354569744E+00  1.4939342722E+02 -1.7904986642E+02  2.3323442488E+02  1.5000000000E+00 0. 9.
</event>
<event>
    12   226  1.000000E+00  3.096443E+02  7.871272E-03  1.069124E-01
      -2   -1    0    0    0  101  0.0000000000E+00  0.0000000000E+00  1.0661116979E+02  1.0661116979E+02  0.0000000000E+00 0. 9.
       2   -1    0    0  101    0  0.0000000000E+00  0.0000000000E+00 -9.3118812193E+02  9.3118812193E+02  0.0000000000E+00 0. 9.
-1000024    2    1    2    0    0 -4.6506407109E+01  1.4607102240E+02 -3.1632379138E+02  4.4265150438E+02  2.6903535800E+02 0. 9.
 1000024    2    1    2    0    0  4.6506407109E+01 -1.4607102240E+02 -5.0825316076E+02  5.9514778733E+02  2.6903535800E+02 0. 9.
 1000022    1    3    0    0    0 -8.9933140423E+01  2.9742628176E+01 -1.4122387465E+02  2.1341945316E+02  1.2896157000E+02 0. 9.
     -24    2    3    0    0    0  4.3426733313E+01  1.1632839422E+02 -1.7509991673E+02  2.2923205123E+02  8.0431188000E+01 0. 9.
 1000022    1    4    0    0    0  2.5424779030E-01 -4.1999537660E+00 -3.0036512632E+02  3.2690671437E+02  1.2896157000E+02 0. 9.
      24    2    4    0    0    0  4.6252159319E+01 -1.4187106863E+02 -2.0788803444E+02  2.6824107296E+02  8.0431188000E+01 0. 9.
       1    1    6    0  102    0  4.3293921766E+01  7.5796024836E+01 -1.6620620457E+02  1.8773388714E+02  3.3000000000E-01 0. 9.
      -2    1    6    0    0  102  1.3281154779E-01  4.0532369388E+01 -8.8937121635E+00  4.1498164094E+01  3.3000000000E-01 0. 9.
      -3    1    8    0    0  103  1.1683653191E+01 -3.8284253525E+00 -6.6514989550E+01  6.7643613353E+01  5.0000000000E-01 0. 9.
       4    1    8    0  103    0  3.4568506129E+01 -1.3804264328E+02 -1.4137304489E+02  2.0059745961E+02  1.5000000000E+00 0. 9.
</event>
<event>
    28   259  1.000000E+00  1.385763E+03  8.007249E-03  8.942938E-02
       2   -1    0    0  101    0  0.0000000000E+00  0.0000000000E+00  2.4821104661E+03  2.4821104661E+03  0.0000000000E+00 0. 9.
      21   -1    0    0  102  101  0.0000000000E+00  0.0000000000E+00 -9.5680625284E+02  9.5680625284E+02  0.0000000000E+00 0. 9.
 2000002    2    1    2  103    0 -2.3629391118E+02 -9.9951252387E+02  1.5349181910E+03  2.0960696339E+03  9.9129912700E+02 0. 9.
 1000021    2    1    2  102  103  2.3629391118E+02  9.9951252387E+02 -9.6139777195E+00  1.3428470851E+03  8.6503512500E+02 0. 9.
 1000021    2    3    0  103  104 -3.2320061576E+02 -8.5351239911E+02  1.3575491821E+03  1.8504506486E+03  8.6503512500E+02 0. 9.
       2    1    3    0  104    0  8.6906704581E+01 -1.4600012476E+02  1.7736900884E+02  2.4561898528E+02  3.3000000000E-01 0. 9.
 1000023    2    4    0    0    0 -2.7975609734E+01  2.2174310214E+02 -1.0481697888E+02  3.6502404513E+02  2.6889276000E+02 0. 9.
       6    2    4    0  102    0  2.0973257524E+02  1.7910685032E+02  1.3139087289E+02  3.5118203033E+02  1.7320000000E+02 0. 9.
      -6    2    4    0    0  103  5.4536945669E+01  5.9866257142E+02 -3.6187871734E+01  6.2664100961E+02  1.7320000000E+02 0. 9.
 1000023    2    5    0    0    0 -4.3000218933E+02 -7.9821082372E+02  1.1965006857E+03  1.5251097040E+03  2.6889276000E+02 0. 9.
       2    1    5    0  103    0  4.2739256781E+01 -1.1848770024E+02  1.9247691494E+02  2.3002923914E+02  3.3000000000E-01 0. 9.
      -2    1    5    0    0  104  6.4062316787E+01  6.3186124844E+01 -3.1428418517E+01  9.5311705448E+01  3.3000000000E-01 0. 9.
 1000022    1    7    0    0    0 -3.9042920411E+01  1.5390570900E+02 -7.2556458521E+01  2.1704110925E+02  1.2896157000E+02 0. 9.
      25    2    7    0    0    0  1.1067310677E+01  6.7837393139E+01 -3.2260520355E+01  1.4798293588E+02  1.2701893900E+02 0. 9.
      24    2    8    0    0    0  1.3137492710E+02  1.2407113769E+02  1.5633407894E+02  2.5211612189E+02  8.0431188000E+01 0. 9.
       5    1    8    0  102    0  7.8357648146E+01  5.5035712624E+01 -2.4943206045E+01  9.9065908439E+01  4.8000000000E+00 0. 9.
     -24    2    9    0    0    0 -2.9256328246E+01  3.6053882588E+02 -4.9274222876E+01  3.7381988009E+02  8.0431188000E+01 0. 9.
      -5    1    9    0    0  103  8.3793273914E+01  2.3812374554E+02  1.3086351142E+01  2.5282112952E+02  4.8000000000E+00 0. 9.
 1000022    1   10    0    0    0 -3.6624605244E+02 -6.5724103009E+02  9.2085274408E+02  1.1961198959E+03  1.2896157000E+02 0. 9.
      23    2   10    0    0    0 -6.3756136884E+01 -1.4096979363E+02  2.7564794165E+02  3.2898980810E+02  9.1187600000E+01 0. 9.
       5    1   14    0  105    0  7.8243895437E+00  6.8164824629E+01  3.7257697010E+01  7.8223016913E+01  4.8000000000E+00 0. 9.
      -5    1   14    0    0  105  3.2429211335E+00 -3.2743148967E-01 -6.9518217365E+01  6.9759918968E+01  4.8000000000E+00 0. 9.
      -1    1   15    0    0  106  7.1651426671E+01  1.9862649888E+01  8.2794674211E+01  1.1128125980E+02  3.3000000000E-01 0. 9.
       2    1   15    0  106    0  5.9723500426E+01  1.0420848781E+02  7.3539404725E+01  1.4083486209E+02  3.3000000000E-01 0. 9.
       1    1   17    0  107    0 -4.5769359002E+00  1.5252981047E+02 -6.0254610462E+01  1.6406406799E+02  3.3000000000E-01 0. 9.
      -2    1   17    0    0  107 -2.4679392345E+01  2.0800901541E+02  1.0980387586E+01  2.0975581210E+02  3.3000000000E-01 0. 9.
       3    1   20    0  108    0  2.3091419930E+01 -3.9870340945E+01  6.3686810490E+01  7.8607363471E+01  5.0000000000E-01 0. 9.
      -3    1   20    0    0  108 -8.6847556814E+01 -1.0109945268E+02  2.1196113116E+02  2.5038244463E+02  5.0000000000E-01 0. 9.
</event>
<event>
    12   230  1.000000E+00  3.792510E+02  7.889400E-03  1.041571E-01
      -1   -1    0    0    0  101  0.0000000000E+00  0.0000000000E+00  1.3263756005E+02  1.3263756005E+02  0.0000000000E+00 0. 9.
       2   -1    0    0  101    0  0.0000000000E+00  0.0000000000E+00 -1.0904783409E+03  1.0904783409E+03  0.0000000000E+00 0. 9.
 1000023    2    1    2    0    0  2.5714085722E+02 -7.3268456192E+01 -4.3317531055E+02  5.7570292094E+02  2.6889276000E+02 0. 9.
 1000024    2    1    2    0    0 -2.5714085722E+02  7.3268456192E+01 -5.2466547034E+02  6.4741298005E+02  2.6903535800E+02 0. 9.
 1000022    1    3    0    0    0  1.4178300938E+02 -1.2521441658E+01 -1.7516197988E+02  2.5994617516E+02  1.2896157000E+02 0. 9.
      25    2    3    0    0    0  1.1535784784E+02 -6.0747014534E+01 -2.5801333067E+02  3.1575674578E+02  1.2701893900E+02 0. 9.
 1000022    1    4    0    0    0 -1.5554493504E+02  1.1023774895E+02 -2.4036840707E+02  3.3279820577E+02  1.2896157000E+02 0. 9.
      24    2    4    0    0    0 -1.0159592218E+02 -3.6969292761E+01 -2.8429706327E+02  3.1461477428E+02  8.0431188000E+01 0. 9.
       5    1    6    0  102    0  1.7380789398E+01 -3.1398918431E+01 -1.8862614067E+02  1.9206989578E+02  4.8000000000E+00 0. 9.
      -5    1    6    0    0  102  9.7977058445E+01 -2.9348096103E+01 -6.9387189998E+01  1.2368685000E+02  4.8000000000E+00 0. 9.
      -3    1    8    0    0  103 -6.9268371258E+01  1.2756981537E+01 -1.1118113145E+02  1.3161436785E+02  5.0000000000E-01 0. 9.
       4    1    8    0  103    0 -3.2327550919E+01 -4.9726274297E+01 -1.7311593182E+02  1.8300040643E+02  1.5000000000E+00 0. 9.
</event>
<event>
    20   259  1.000000E+00  9.547258E+02  7.973005E-03  9.321934E-02
       1   -1    0    0  101    0  0.0000000000E+00  0.0000000000E+00  1.5665330940E+03  1.5665330940E+03  0.0000000000E+00 0. 9.
      21   -1    0    0  102  101  0.0000000000E+00  0.0000000000E+00 -5.8409138076E+02  5.8409138076E+02  0.0000000000E+00 0. 9.
 2000001    2    1    2  103    0  7.2622916016E+01  2.0085947913E+02  6.1867305375E+02  1.1882149863E+03  9.9170554500E+02 0. 9.
 1000021    2    1    2  102  103 -7.2622916016E+01 -2.0085947913E+02  3.6376865946E+02  9.6240948841E+02  8.6503512500E+02 0. 9.
 1000021    2    3    0  103  104  1.7379134675E+02  1.3264837265E+02  5.3661383739E+02  1.0411720323E+03  8.6503512500E+02 0. 9.
       1    1    3    0  104    0 -1.0116843073E+02  6.8211106480E+01  8.2059216364E+01  1.4704295398E+02  3.3000000000E-01 0. 9.
 1000023    2    4    0    0    0  1.7150621427E+01  9.8246539270E+01  2.9435878194E+01  2.8829900034E+02  2.6889276000E+02 0. 9.
       2    1    4    0  102    0 -2.5549610197E+02 -3.0390147705E+02  1.4557137112E+02  4.2287764054E+02  3.3000000000E-01 0. 9.
      -2    1    4    0    0  103  1.6572256452E+02  4.7954586511E+00  1.8876141015E+02  2.5123284753E+02  3.3000000000E-01 0. 9.
 1000023    2    5    0    0    0  3.9153014891E+02  9.0963592044E+01  3.9170501048E+01  4.8518849648E+02  2.6889276000E+02 0. 9.
       2    1    5    0  103    0 -1.0235707632E+02  4.5207026315E+01  3.5734158828E+02  3.7445128644E+02  3.3000000000E-01 0. 9.
      -2    1    5    0    0  104 -1.1538172584E+02 -3.5222457061E+00  1.4010174805E+02  1.8153224943E+02  3.3000000000E-01 0. 9.
 1000022    1    7    0    0    0 -1.0312894964E+01  8.3932003081E+01  3.2154234468E+01  1.5753068995E+02  1.2896157000E+02 0. 9.
      25    2    7    0    0    0  2.7463516391E+01  1.4314536189E+01 -2.7183562737E+00  1.3076831040E+02  1.2701893900E+02 0. 9.
 1000022    1   10    0    0    0  2.0673500168E+02  1.5427254171E+01  4.6123019357E+01  2.4846686005E+02  1.2896157000E+02 0. 9.
      25    2   10    0    0    0  1.8479514723E+02  7.5536337873E+01 -6.9525183085E+00  2.3672163643E+02  1.2701893900E+02 0. 9.
       5    1   14    0  105    0  3.1172577377E+01 -4.8790568659E+01 -2.5440604650E+01  6.3423288588E+01  4.8000000000E+00 0. 9.
      -5    1   14    0    0  105 -3.7090609856E+00  6.3105104848E+01  2.2722248376E+01  6.7345021810E+01  4.8000000000E+00 0. 9.
       5    1   16    0  106    0  1.3354223150E+02  1.0987446465E+02  7.5549030082E+00  1.7316478319E+02  4.8000000000E+00 0. 9.
      -5    1   16    0    0  106  5.1252915724E+01 -3.4338126776E+01 -1.4507421317E+01  6.3556853242E+01  4.8000000000E+00 0. 9.
</event>
<event>
    12   230  1.000000E+00  3.310792E+02  7.877247E-03  1.059869E-01
      -1   -1    0    0    0  101  0.0000000000E+00  0.0000000000E+00  2.0560280246E+02  2.0560280246E+02  0.0000000000E+00 0. 9.
       2   -1    0    0  101    0  0.0000000000E+00  0.0000000000E+00 -5.5978464328E+02  5.5978464328E+02  0.0000000000E+00 0. 9.
 1000023    2    1    2    0    0  1.8884114600E+02 -4.0134488942E+01 -9.3556617874E+01  3.4398824508E+02  2.6889276000E+02 0. 9.
 1000024    2    1    2    0    0 -1.8884114600E+02  4.0134488942E+01 -2.6062522295E+02  4.2139920066E+02  2.6903535800E+02 0. 9.
 1000022    1    3    0    0    0  7.1958329396E+01 -1.6115055557E+01 -8.1138609851E+01  1.6926977501E+02  1.2896157000E+02 0. 9.
      25    2    3    0    0    0  1.1688281660E+02 -2.4019433385E+01 -1.2418008023E+01  1.7471847007E+02  1.2701893900E+02 0. 9.
 1000022    1    4    0    0    0 -1.0307131347E+02  7.3959638274E+01 -2.3471019279E+02  2.9633373904E+02  1.2896157000E+02 0. 9.
      24    2    4    0    0    0 -8.5769832532E+01 -3.3825149332E+01 -2.5915030156E+01  1.2506546162E+02  8.0431188000E+01 0. 9.
       5    1    6    0  102    0  5.3753222216E+01  5.1562966694E+01 -1.4802688783E+01  7.6094073541E+01  4.8000000000E+00 0. 9.
      -5    1    6    0    0  102  6.3129594387E+01 -7.5582400079E+01  2.3846807595E+00  9.8624396533E+01  4.8000000000E+00 0. 9.
     -11    1    8    0    0    0 -4.8915282621E+01 -4.6754506620E+01 -4.5333034934E+01  8.1447976155E+01  5.1000000000E-04 0. 9.
      12    1    8    0    0    0 -3.6854549911E+01  1.2929357288E+01  1.9418004777E+01  4.3617485468E+01  0.0000000000E+00 0. 9.
</event>
<event>
    12   230  1.000000E+00  2.889368E+02  7.865103E-03  1.078865E-01
       2   -1    0    0  101    0  0.0000000000E+00  0.0000000000E+00  7.7774654593E+02  7.7774654593E+02  0.0000000000E+00 0. 9.
      -1   -1    0    0    0  101  0.0000000000E+00  0.0000000000E+00 -1.0734505967E+02  1.0734505967E+02  0.0000000000E+00 0. 9.
 1000024    2    1    2    0    0  3.1528162072E+01  1.0074103436E+02  3.3784182966E+02  4.4458959359E+02  2.6903535800E+02 0. 9.
 1000023    2    1    2    0    0 -3.1528162072E+01 -1.0074103436E+02  3.3255965660E+02  4.4050201201E+02  2.6889276000E+02 0. 9.
 1000022    1    3    0    0    0  6.3659619021E+01  6.9409131738E+01  3.0942177016E+02  3.4819978898E+02  1.2896157000E+02 0. 9.
      24    2    3    0    0    0 -3.2131456949E+01  3.1331902625E+01  2.8420059503E+01  9.6389804612E+01  8.0431188000E+01 0. 9.
 1000022    1    4    0    0    0 -5.3468659762E+01 -3.3870694858E+01  1.6588194155E+02  2.1944025751E+02  1.2896157000E+02 0. 9.
      25    2    4    0    0    0  2.1940497689E+01 -6.6870339506E+01  1.6667771505E+02  2.2106175450E+02  1.2701893900E+02 0. 9.
      -3    1    6    0    0  102 -1.5990877714E+01  1.5964348147E+00 -2.7009554879E+01  3.1432830432E+01  5.0000000000E-01 0. 9.
       4    1    6    0  102    0 -1.6140579235E+01  2.9735467811E+01  5.5429614383E+01  6.4956974180E+01  1.5000000000E+00 0. 9.
      21    1    8    0  103  104 -4.8205398841E+01 -4.9383856360E-02  5.9817049313E+01  7.6823448925E+01  0.0000000000E+00 0. 9.
      21    1    8    0  104  103  7.0145896531E+01 -6.6820955649E+01  1.0686066574E+02  1.4423830558E+02  0.0000000000E+00 0. 9.
</event>
<event>
    19   273  1.000000E+00  1.323925E+03  8.003038E-03  8.987710E-02
       2   -1    0    0  101    0  0.0000000000E+00  0.0000000000E+00  1.4086216644E+03  1.4086216644E+03  0.0000000000E+00 0. 9.
       1   -1    0    0  102    0  0.0000000000E+00  0.0000000000E+00 -1.2458724608E+03  1.2458724608E+03  0.0000000000E+00 0. 9.
 2000002    2    1    2  102    0 -1.2121190288E+02 -8.6741667536E+02  3.4441649834E+01  1.3232400389E+03  9.9129912700E+02 0. 9.
 1000001    2    1    2  101    0  1.2121190288E+02  8.6741667536E+02  1.2830755378E+02  1.3312540863E+03  9.9431916400E+02 0. 9.
 1000021    2    3    0  102  103 -1.4523540418E+01 -8.3682859097E+02  7.2695154161E+01  1.2058455029E+03  8.6503512500E+02 0. 9.
       2    1    3    0  103    0 -1.0668836247E+02 -3.0588084388E+01 -3.8253504327E+01  1.1739453601E+02  3.3000000000E-01 0. 9.
-1000024    2    4    0    0    0  1.5260750425E+02  9.8828047712E+02  3.3618298521E+02  1.0887545064E+03  2.6903535800E+02 0. 9.
       2    1    4    0  101    0 -3.1395601368E+01 -1.2086380177E+02 -2.0787543144E+02  2.4249957991E+02  3.3000000000E-01 0. 9.
 1000023    2    5    0    0    0 -2.8552709943E+02 -3.8717412674E+02  5.3298484372E+01  5.5369086478E+02  2.6889276000E+02 0. 9.
       1    1    5    0  102    0  6.6973623172E+01 -3.5215230893E+02  1.5272683591E+02  3.8964382478E+02  3.3000000000E-01 0. 9.
      -1    1    5    0    0  103  2.0402993584E+02 -9.7502155297E+01 -1.3333016613E+02  2.6251081331E+02  3.3000000000E-01 0. 9.
 1000022    1    7    0    0    0  1.1268125009E+02  7.6970723857E+02  1.9070007361E+02  8.1126068674E+02  1.2896157000E+02 0. 9.
     -24    2    7    0    0    0  3.9926254159E+01  2.1857323855E+02  1.4548291161E+02  2.7749381967E+02  8.0431188000E+01 0. 9.
 1000022    1    9    0    0    0 -9.0775859133E+01 -1.7297422299E+02  7.0002764260E+00  2.3418033399E+02  1.2896157000E+02 0. 9.
      25    2    9    0    0    0 -1.9475124030E+02 -2.1419990375E+02  4.6298207946E+01  3.1951053079E+02  1.2701893900E+02 0. 9.
       3    1   13    0  104    0  8.3875453459E+00  1.5855014846E+02  6.3264984150E+01  1.7091286878E+02  5.0000000000E-01 0. 9.
      -4    1   13    0    0  104  3.1538708814E+01  6.0023090087E+01  8.2217927458E+01  1.0658095089E+02  1.5000000000E+00 0. 9.
     -15    1   15    0    0    0 -5.4026982102E+01 -1.9753071519E+01  5.4603500621E+01  7.9333464808E+01  1.7770000000E+00 0. 9.
      15    1   15    0    0    0 -1.4072425819E+02 -1.9444683223E+02 -8.3052926744E+00  2.4017706598E+02  1.7770000000E+00 0. 9.
</event>
<event>
    15   272  1.000000E+00  1.112662E+03  7.987040E-03  9.162391E-02
       2   -1    0    0  101    0  0.0000000000E+00  0.0000000000E+00  1.9255073758E+03  1.9255073758E+03  0.0000000000E+00 0. 9.
       2   -1    0    0  102    0  0.0000000000E+00  0.0000000000E+00 -1.1705709848E+03  1.1705709848E+03  0.0000000000E+00 0. 9.
 2000002    2    1    2  101    0  2.6544109235E+02  4.2998068395E+02 -6.6183359173E+02  1.2946196447E+03  9.9129912700E+02 0. 9.
 2000002    2    1    2  102    0 -2.6544109235E+02 -4.2998068395E+02  1.4167699827E+03  1.8014587159E+03  9.9129912700E+02 0. 9.
 1000021    2    3    0  101  103  1.4304381089E+02  3.5630983434E+02 -6.5619603793E+02  1.1516497895E+03  8.6503512500E+02 0. 9.
       2    1    3    0  103    0  1.2239728146E+02  7.3670849612E+01 -5.6375538022E+00  1.4296985523E+02  3.3000000000E-01 0. 9.
 1000022    1    4    0    0    0 -7.4370977757E+01  3.1238358450E+02  4.4933916444E+02  5.6714311900E+02  1.2896157000E+02 0. 9.
       2    1    4    0  102    0 -1.9107011460E+02 -7.4236426845E+02  9.6743081823E+02  1.2343155969E+03  3.3000000000E-01 0. 9.
 1000023    2    5    0    0    0  2.1012437333E+02  1.0728709222E+02 -3.8274282010E+01  3.5976521437E+02  2.6889276000E+02 0. 9.
       2    1    5    0  101    0  4.3330677263E+01  5.6776010765E+01 -5.5756158008E+02  5.6211750326E+02  3.3000000000E-01 0. 9.
      -2    1    5    0    0  103 -1.1041123970E+02  1.9224673136E+02 -6.0360175839E+01  2.2976707183E+02  3.3000000000E-01 0. 9.
 1000022    1    9    0    0    0  9.4465520721E+01  1.4566379848E+01 -3.6149656599E+01  1.6454117490E+02  1.2896157000E+02 0. 9.
      25    2    9    0    0    0  1.1565885261E+02  9.2720712370E+01 -2.1246254109E+00  1.9522403947E+02  1.2701893900E+02 0. 9.
       5    1   13    0  104    0  1.0576424759E+02  8.7025474514E+01  4.6750787328E+01  1.4480395505E+02  4.8000000000E+00 0. 9.
      -5    1   13    0    0  104  9.8946050243E+00  5.6952378560E+00 -4.8875412739E+01  5.0420084423E+01  4.8000000000E+00 0. 9.
</event>
<event>
    17   258  1.000000E+00  9.332607E+02  7.970925E-03  9.346108E-02
       2   -1    0    0  101    0  0.0000000000E+00  0.0000000000E+00  1.3520554388E+03  1.3520554388E+03  0.0000000000E+00 0. 9.
      21   -1    0    0  102  101  0.0000000000E+00  0.0000000000E+00 -6.5749914014E+02  6.5749914014E+02  0.0000000000E+00 0. 9.
 1000002    2    1    2  103    0  3.3613219391E+00 -7.2656122651E+01  5.2782759137E+02  1.1256007114E+03  9.9150632100E+02 0. 9.
 1000021    2    1    2  102  103 -3.3613219391E+00  7.2656122651E+01  1.6672870726E+02  8.8395386755E+02  8.6503512500E+02 0. 9.
 1000023    2    3    0    0    0  3.8062676439E+02 -2.2354775610E+02  4.9870847552E+02  7.1823658565E+02  2.6889276000E+02 0. 9.
       2    1    3    0  103    0 -3.7726544245E+02  1.5089163345E+02  2.9119115854E+01  4.0736412572E+02  3.3000000000E-01 0. 9.
 1000023    2    4    0    0    0  2.4214874129E+02  2.0111740570E+02 -9.5268564998E+01  4.2481012187E+02  2.6889276000E+02 0. 9.
       1    1    4    0  102    0 -1.8980678338E+02 -2.0093970393E+02  2.3769248159E+02  3.6455617446E+02  3.3000000000E-01 0. 9.
      -1    1    4    0    0  103 -5.5703279851E+01  7.2478420879E+01  2.4304790671E+01  9.4587571218E+01  3.3000000000E-01 0. 9.
 1000022    1    5    0    0    0  1.3085433480E+02 -7.2852904722E+01  2.1372683390E+02  2.9110247118E+02  1.2896157000E+02 0. 9.
      25    2    5    0    0    0  2.4977242960E+02 -1.5069485138E+02  2.8498164162E+02  4.2713411447E+02  1.2701893900E+02 0. 9.
 1000022    1    7    0    0    0  1.6920188524E+02  1.2081777425E+02 -3.4600437415E+01  2.4709206655E+02  1.2896157000E+02 0. 9.
      25    2    7    0    0    0  7.2946856053E+01  8.0299631449E+01 -6.0668127583E+01  1.7771805532E+02  1.2701893900E+02 0. 9.
       5    1   11    0  104    0  1.4750927311E+02 -9.5518398429E+01  2.5012300662E+02  3.0572423609E+02  4.8000000000E+00 0. 9.
      -5    1   11    0    0  104  1.0226315649E+02 -5.5176452954E+01  3.4858635006E+01  1.2140987839E+02  4.8000000000E+00 0. 9.
       5    1   13    0  105    0 -1.3088309692E+01  5.0937727652E+01 -6.8332797707E+01  8.6361838745E+01  4.8000000000E+00 0. 9.
      -5    1   13    0    0  105  8.6035165746E+01  2.9361903797E+01  7.6646701237E+00  9.1356216579E+01  4.8000000000E+00 0. 9.
</event>
<event>
    12   230  1.000000E+00  3.355823E+02  7.878454E-03  1.058021E-01
      -1   -1    0    0    0  101  0.0000000000E+00  0.0000000000E+00  8.9075708198E+02  8.9075708198E+02  0.0000000000E+00 0. 9.
       2   -1    0    0  101    0  0.0000000000E+00  0.0000000000E+00 -1.2847478697E+02  1.2847478697E+02  0.0000000000E+00 0. 9.
 1000023    2    1    2    0    0 -1.8600317370E+02  7.5343425034E+01  4.4542129179E+02  5.5765334742E+02  2.6889276000E+02 0. 9.
 1000024    2    1    2    0    0  1.8600317370E+02 -7.5343425034E+01  3.1686100321E+02  4.6157852153E+02  2.6903535800E+02 0. 9.
 1000022    1    3    0    0    0 -9.7323473579E+01  8.0526148338E+01  2.4132720696E+02  3.0137389806E+02  1.2896157000E+02 0. 9.
      25    2    3    0    0    0 -8.8679700126E+01 -5.1827233036E+00  2.0409408483E+02  2.5627944936E+02  1.2701893900E+02 0. 9.
 1000022    1    4    0    0    0  1.0524134718E+01 -3.8117431235E+00  1.1240646896E+02  1.7143974918E+02  1.2896157000E+02 0. 9.
      24    2    4    0    0    0  1.7547903899E+02 -7.1531681911E+01  2.0445453426E+02  2.9013877235E+02  8.0431188000E+01 0. 9.
       5    1    6    0  102    0 -1.0178716985E+02  2.3911053170E+01  9.1077295028E+01  1.3874609933E+02  4.8000000000E+00 0. 9.
      -5    1    6    0    0  102  1.3107469720E+01 -2.9093776473E+01  1.1301678980E+02  1.1753335003E+02  4.8000000000E+00 0. 9.
      -3    1    8    0    0  103  2.4624691687E+01  1.0516172234E+01  6.0099443631E+01  6.5796340657E+01  5.0000000000E-01 0. 9.
       4    1    8    0  103    0  1.5085434730E+02 -8.2047854145E+01  1.4435509063E+02  2.2434243169E+02  1.5000000000E+00 0. 9.
</event>
<event>
    12   230  1.000000E+00  3.440489E+02  7.880681E-03  1.054628E-01
       1   -1    0    0  101    0  0.0000000000E+00  0.0000000000E+00  3.8968381378E+02  3.8968381378E+02  0.0000000000E+00 0. 9.
      -2   -1    0    0    0  101  0.0000000000E+00  0.0000000000E+00 -4.1212961493E+02  4.1212961493E+02  0.0000000000E+00 0. 9.
 1000023    2    1    2    0    0  8.8046662529E+01 -1.9564183609E+02  1.9435993085E+02  3.9510383687E+02  2.6889276000E+02 0. 9.
-1000024    2    1    2    0    0 -8.8046662529E+01  1.9564183609E+02 -2.1680573200E+02  4.0670959184E+02  2.6903535800E+02 0. 9.
 1000022    1    3    0    0    0  1.0318305898E+02 -5.9184105941E+01  7.1145891702E+01  1.8932069750E+02  1.2896157000E+02 0. 9.
      23    2    3    0    0    0 -1.5136396454E+01 -1.3645773015E+02  1.2321403915E+02  2.0578313938E+02  9.1187600000E+01 0. 9.
 1000022    1    4    0    0    0 -7.0054225984E+01  6.0297972220E+01 -2.9533800538E+01  1.6139012344E+02  1.2896157000E+02 0. 9.
     -24    2    4    0    0    0 -1.7992436545E+01  1.3534386387E+02 -1.8727193146E+02  2.4531946840E+02  8.0431188000E+01 0. 9.
       3    1    6    0  102    0 -3.9532656210E+01 -1.3295975299E+02  9.4022439827E+01  1.6757564266E+02  5.0000000000E-01 0. 9.
      -3    1    6    0    0  102  2.4396259756E+01 -3.4979771579E+00  2.9191599323E+01  3.8207496716E+01  5.0000000000E-01 0. 9.
       1    1    8    0  103    0 -9.9401393874E+00  1.1966378891E+02 -9.9938463526E+01  1.5622430713E+02  3.3000000000E-01 0. 9.
      -2    1    8    0    0  103 -8.0522971573E+00  1.5680074966E+01 -8.7333467934E+01  8.9095161271E+01  3.3000000000E-01 0. 9.
</event>
<event>
    28   258  1.000000E+00  9.345550E+02  7.971051E-03  9.344631E-02
       2   -1    0    0  101    0  0.0000000000E+00  0.0000000000E+00  2.4081516800E+03  2.4081516800E+03  0.0000000000E+00 0. 9.
      21   -1    0    0  102  101  0.0000000000E+00  0.0000000000E+00 -3.6268437734E+02  3.6268437734E+02  0.0000000000E+00 0. 9.
 1000002    2    1    2  103    0 -8.2532626843E+01 -2.9936207877E+01  9.9828854812E+02  1.4097420406E+03  9.9150632100E+02 0. 9.
 1000021    2    1    2  102  103  8.2532626843E+01  2.9936207877E+01  1.0471787545E+03  1.3610940168E+03  8.6503512500E+02 0. 9.
 1000021    2    3    0  103  104 -4.9851574606E+01 -1.4180766672E+02  8.9930350799E+02  1.2568321928E+03  8.6503512500E+02 0. 9.
       2    1    3    0  104    0 -3.2681052237E+01  1.1187145885E+02  9.8985040130E+01  1.5290984779E+02  3.3000000000E-01 0. 9.
 1000024    2    4    0    0    0  2.6405794311E+02 -1.9216013236E+02  5.0640852201E+02  6.5991039453E+02  2.6903535800E+02 0. 9.
      -6    2    4    0    0  103  1.1431761347E+01  1.4713922360E+02  3.6225732972E+02  4.2779580319E+02  1.7320000000E+02 0. 9.
       5    1    4    0  102    0 -1.9295707761E+02  7.4957116636E+01  1.7851290279E+02  2.7338781904E+02  4.8000000000E+00 0. 9.
 1000024    2    5    0    0    0 -1.1747754648E+02 -7.5282367317E+01  2.9298387673E+02  4.2153052634E+02  2.6903535800E+02 0. 9.
      -6    2    5    0    0  104 -6.7263228783E+01 -3.3484283968E+01  6.5989543022E+02  6.8637144321E+02  1.7320000000E+02 0. 9.
       5    1    5    0  103    0  1.3488920066E+02 -3.3041015440E+01 -5.3575798970E+01  1.4893022323E+02  4.8000000000E+00 0. 9.
 1000022    1    7    0    0    0  1.4461790207E+02 -5.3045342214E+01  1.4856478745E+02  2.4986141867E+02  1.2896157000E+02 0. 9.
      24    2    7    0    0    0  1.1944004104E+02 -1.3911479015E+02  3.5784373456E+02  4.1004897586E+02  8.0431188000E+01 0. 9.
     -24    2    8    0    0    0  4.6637993476E+01  4.8458845972E+01  2.6408382131E+02  2.8413518415E+02  8.0431188000E+01 0. 9.
      -5    1    8    0    0  103 -3.5206232128E+01  9.8680377633E+01  9.8173508408E+01  1.4366061904E+02  4.8000000000E+00 0. 9.
 1000022    1   10    0    0    0 -1.3574780101E+02 -3.6486125540E+00  1.4129570393E+02  2.3459825306E+02  1.2896157000E+02 0. 9.
      24    2   10    0    0    0  1.8270254529E+01 -7.1633754763E+01  1.5168817281E+02  1.8693227328E+02  8.0431188000E+01 0. 9.
     -24    2   11    0    0    0 -1.0930222225E+02 -4.5762838524E+01  5.3886552263E+02  5.5757191524E+02  8.0431188000E+01 0. 9.
      -5    1   11    0    0  104  4.2038993462E+01  1.2278554556E+01  1.2102990759E+02  1.2879952797E+02  4.8000000000E+00 0. 9.
      -3    1   14    0    0  105  5.2080906059E+01 -7.8785350740E+00  9.1434054392E+01  1.0552217015E+02  5.0000000000E-01 0. 9.
       4    1   14    0  105    0  6.7359134977E+01 -1.3123625508E+02  2.6640968017E+02  3.0452680571E+02  1.5000000000E+00 0. 9.
       3    1   15    0  106    0  2.8681448048E+01 -1.8770098719E+01  1.0604946816E+02  1.1145259874E+02  5.0000000000E-01 0. 9.
      -4    1   15    0    0  106  1.7956545428E+01  6.7228944691E+01  1.5803435315E+02  1.7268258541E+02  1.5000000000E+00 0. 9.
     -13    1   18    0    0    0  1.2750739300E+01 -4.2146145481E+00 -6.4762432956E+00  1.4909635131E+01  1.0566000000E-01 0. 9.
      14    1   18    0    0    0  5.5195152291E+00 -6.7419140215E+01  1.5816441610E+02  1.7202263815E+02  0.0000000000E+00 0. 9.
       1    1   19    0  107    0 -3.8382497227E+01 -4.2526482513E-01  5.9057454796E+01  7.0436416792E+01  3.3000000000E-01 0. 9.
      -2    1   19    0    0  107 -7.0919725019E+01 -4.5337573699E+01  4.7980806783E+02  4.8713549844E+02  3.3000000000E-01 0. 9.
</event>
<event>
    11   272  1.000000E+00  1.043655E+03  7.981164E-03  9.228449E-02
       2   -1    0    0  101    0  0.0000000000E+00  0.0000000000E+00  1.7982653700E+03  1.7982653700E+03  0.0000000000E+00 0. 9.
       3   -1    0    0  102    0  0.0000000000E+00  0.0000000000E+00 -6.5760629385E+02  6.5760629385E+02  0.0000000000E+00 0. 9.
 2000002    2    1    2  102    0  3.7522441749E+01 -3.2362184072E+02  9.1520717638E+02  1.3879543092E+03  9.9129912700E+02 0. 9.
 2000003    2    1    2  101    0 -3.7522441749E+01  3.2362184072E+02  2.2545189981E+02  1.0679173547E+03  9.9170554500E+02 0. 9.
 1000022    1    3    0    0    0 -7.2486581396E+01 -3.4620411976E+02 -8.1278074115E+01  3.8516075720E+02  1.2896157000E+02 0. 9.
       2    1    3    0  102    0  1.1000902314E+02  2.2582279033E+01  9.9648525049E+02  1.0027935520E+03  3.3000000000E-01 0. 9.
 1000021    2    4    0  101  103 -1.0649234128E+02  1.8958386203E+02  2.1039489190E+02  9.1642481280E+02  8.6503512500E+02 0. 9.
       3    1    4    0  103    0  6.8969899531E+01  1.3403797870E+02  1.5057007911E+01  1.5149254193E+02  5.0000000000E-01 0. 9.
 1000022    1    7    0    0    0 -2.0446634466E+02  2.1007282499E+02 -1.6050372896E+02  3.5823122623E+02  1.2896157000E+02 0. 9.
       2    1    7    0  101    0  2.3006939249E+02 -7.8130772136E+01  1.2517710852E+02  2.7332354512E+02  3.3000000000E-01 0. 9.
      -2    1    7    0    0  103 -1.3209538912E+02  5.7641809169E+01  2.4572151234E+02  2.8487004146E+02  3.3000000000E-01 0. 9.
</event>
<event>
    12   226  1.000000E+00  2.724505E+02  7.859875E-03  1.087274E-01
       2   -1    0    0  101    0  0.0000000000E+00  0.0000000000E+00  2.8790475397E+02  2.8790475397E+02  0.0000000000E+00 0. 9.
      -2   -1    0    0    0  101  0.0000000000E+00  0.0000000000E+00 -3.1908446951E+02  3.1908446951E+02  0.0000000000E+00 0. 9.
 1000024    2    1    2    0    0 -4.2057831916E+01  8.9657298975E+00  1.1738881145E+02  2.9666378688E+02  2.6903535800E+02 0. 9.
-1000024    2    1    2    0    0  4.2057831916E+01 -8.9657298975E+00 -1.4856852698E+02  3.1032543660E+02  2.6903535800E+02 0. 9.
 1000022    1    3    0    0    0 -1.0416594042E+02 -1.4924058203E+01  5.6285882456E+01  1.7570559967E+02  1.2896157000E+02 0. 9.
      24    2    3    0    0    0  6.2108108502E+01  2.3889788101E+01  6.1102928990E+01  1.2095818720E+02  8.0431188000E+01 0. 9.
 1000022    1    4    0    0    0 -2.0745538376E+01 -3.1308024941E+00 -8.1082708912E-01  1.3065957012E+02  1.2896157000E+02 0. 9.
     -24    2    4    0    0    0  6.2803370292E+01 -5.8349274034E+00 -1.4775769989E+02  1.7966586648E+02  8.0431188000E+01 0. 9.
     -13    1    6    0    0    0  2.6352773651E+01  4.5314330987E+01  7.3431337210E+00  5.2931937890E+01  1.0566000000E-01 0. 9.
      14    1    6    0    0    0  3.5755334851E+01 -2.1424542887E+01  5.3759795269E+01  6.8026249313E+01  0.0000000000E+00 0. 9.
       1    1    8    0  102    0 -5.7569585267E+00 -2.7248907517E+01 -2.4939722745E+01  3.7386417359E+01  3.3000000000E-01 0. 9.
      -2    1    8    0    0  102  6.8560328819E+01  2.1413980113E+01 -1.2281797714E+02  1.4227944912E+02  3.3000000000E-01 0. 9.
</event>
<event>
    22   273  1.000000E+00  1.061268E+03  7.982699E-03  9.211091E-02
       2   -1    0    0  101    0  0.0000000000E+00  0.0000000000E+00  2.5551143859E+03  2.5551143859E+03  0.0000000000E+00 0. 9.
       1   -1    0    0  102    0  0.0000000000E+00  0.0000000000E+00 -6.8986996944E+02  6.8986996944E+02  0.0000000000E+00 0. 9.
 2000002    2    1    2  102    0 -5.2213489556E+01  3.7133757739E+02  1.9067324010E+03  2.1814949583E+03  9.9129912700E+02 0. 9.
 1000001    2    1    2  101    0  5.2213489556E+01 -3.7133757739E+02 -4.1487984527E+01  1.0634893970E+03  9.9431916400E+02 0. 9.
 1000021    2    3    0  102  103 -4.4691030608E+01  4.4295607116E+02  1.6560660988E+03  1.9206894752E+03  8.6503512500E+02 0. 9.
       2    1    3    0  103    0 -7.5224589476E+00 -7.1618493776E+01  2.5066630217E+02  2.6080548304E+02  3.3000000000E-01 0. 9.
 1000021    2    4    0  101  104 -1.6531923796E+01 -3.0009317149E+02 -1.3696826852E+02  9.2594561943E+02  8.6503512500E+02 0. 9.
       1    1    4    0  104    0  6.8745413352E+01 -7.1244405900E+01  9.5480283995E+01  1.3754377762E+02  3.3000000000E-01 0. 9.
 1000024    2    5    0    0    0  6.1778275896E+01  9.1152757703E+01  1.4678198710E+03  1.4963290341E+03  2.6903535800E+02 0. 9.
      -4    1    5    0    0  103 -9.3490140172E+01  1.4188622002E+02  7.9820114093E+01  1.8773813239E+02  1.5000000000E+00 0. 9.
       3    1    5    0  102    0 -1.2979166332E+01  2.0991709344E+02  1.0842611370E+02  2.3662230877E+02  5.0000000000E-01 0. 9.
 1000024    2    7    0    0    0 -2.0267877243E+02 -6.3501896936E+01 -1.0503636978E+02  3.5850221553E+02  2.6903535800E+02 0. 9.
      -2    1    7    0    0  104  1.5373922902E+02  8.5354660213E+01  1.1703024234E+02  2.1122820617E+02  3.3000000000E-01 0. 9.
       1    1    7    0  101    0  3.2407619610E+01 -3.2194593476E+02 -1.4896214108E+02  3.5621519773E+02  3.3000000000E-01 0. 9.
 1000022    1    9    0    0    0  6.1828709416E+01 -1.5681791232E+01  9.8028121953E+02  9.9078305586E+02  1.2896157000E+02 0. 9.
      24    2    9    0    0    0 -5.0433520226E-02  1.0683454894E+02  4.8753865148E+02  5.0554597821E+02  8.0431188000E+01 0. 9.
 1000022    1   12    0    0    0 -1.9818256891E+02  1.9831486909E+00 -5.2772557500E+01  2.4227317817E+02  1.2896157000E+02 0. 9.
      24    2   12    0    0    0 -4.4962035105E+00 -6.5485045627E+01 -5.2263812279E+01  1.1622903735E+02  8.0431188000E+01 0. 9.
      -1    1   16    0    0  105 -2.2207788806E+01  1.5065391536E+01  4.0072904338E+01  4.8229643041E+01  3.3000000000E-01 0. 9.
       2    1   16    0  105    0  2.2157355285E+01  9.1769157400E+01  4.4746574714E+02  4.5731633517E+02  3.3000000000E-01 0. 9.
      -3    1   18    0    0  106  3.5012739439E+01 -4.9258140651E+01 -3.6917112708E+01  7.0819344491E+01  5.0000000000E-01 0. 9.
       4    1   18    0  106    0 -3.9508942949E+01 -1.6226904976E+01 -1.5346699572E+01  4.5409692862E+01  1.5000000000E+00 0. 9.
</event>
<event>
    12   230  1.000000E+00  4.258855E+02  7.899806E-03  1.026443E-01
       2   -1    0    0  101    0  0.0000000000E+00  0.0000000000E+00  2.2744180128E+02  2.2744180128E+02  0.0000000000E+00 0. 9.
      -1   -1    0    0    0  101  0.0000000000E+00  0.0000000000E+00 -8.7227238485E+02  8.7227238485E+02  0.0000000000E+00 0. 9.
 1000024    2    1    2    0    0 -2.8030677124E+02 -1.7454206925E+02 -4.8346482866E+02  6.4432529389E+02  2.6903535800E+02 0. 9.
 1000023    2    1    2    0    0  2.8030677124E+02  1.7454206925E+02 -1.6136575491E+02  4.5538889224E+02  2.6889276000E+02 0. 9.
 1000022    1    3    0    0    0 -1.2763698657E+02 -4.5585087091E+01 -1.2140206796E+02  2.2302185800E+02  1.2896157000E+02 0. 9.
      24    2    3    0    0    0 -1.5266978466E+02 -1.2895698215E+02 -3.6206276070E+02  4.2130343588E+02  8.0431188000E+01 0. 9.
 1000022    1    4    0    0    0  1.7056326063E+02  7.0652391413E+01 -5.7968906556E+01  2.3254046305E+02  1.2896157000E+02 0. 9.
      25    2    4    0    0    0  1.0974351061E+02  1.0388967783E+02 -1.0339684835E+02  2.2284842919E+02  1.2701893900E+02 0. 9.
      -3    1    6    0    0  102 -9.7237679478E+01 -1.1013981002E+02 -3.0955247819E+02  3.4264986621E+02  5.0000000000E-01 0. 9.
       4    1    6    0  102    0 -5.5432105184E+01 -1.8817172137E+01 -5.2510282512E+01  7.8653569670E+01  1.5000000000E+00 0. 9.
       5    1    8    0  103    0  5.0986252708E+01  9.9128427375E+01 -1.1751075909E+02  1.6204277701E+02  4.8000000000E+00 0. 9.
      -5    1    8    0    0  103  5.8757257897E+01  4.7612504575E+00  1.4113910735E+01  6.0805652186E+01  4.8000000000E+00 0. 9.
</event>
<event>
    13   259  1.000000E+00  1.019042E+03  7.978976E-03  9.253316E-02
      21   -1    0    0  101  102  0.0000000000E+00  0.0000000000E+00  7.0896579602E+02  7.0896579602E+02  0.0000000000E+00 0. 9.
       2   -1    0    0  102    0  0.0000000000E+00  0.0000000000E+00 -1.4918320257E+03  1.4918320257E+03  0.0000000000E+00 0. 9.
 1000021    2    1    2  101  103  4.1077185403E+02 -6.5062409072E+01 -2.0939951501E+02  9.8239531631E+02  8.6503512500E+02 0. 9.
 2000002    2    1    2  103    0 -4.1077185403E+02  6.5062409072E+01 -5.7346671466E+02  1.2184025054E+03  9.9129912700E+02 0. 9.
 1000023    2    3    0    0    0  1.1997915226E+02 -4.1696395744E+01 -6.1773231147E+01  3.0373151773E+02  2.6889276000E+02 0. 9.
       3    1    3    0  101    0 -8.6969972411E+01 -1.8228877995E+02 -1.7593680669E+02  2.6785627740E+02  5.0000000000E-01 0. 9.
      -3    1    3    0    0  103  3.7776267418E+02  1.5892276662E+02  2.8310522830E+01  4.1080752118E+02  5.0000000000E-01 0. 9.
 1000022    1    4    0    0    0 -3.5555830593E+02  4.4920985392E+02 -5.8668089414E+02  8.3008238137E+02  1.2896157000E+02 0. 9.
       2    1    4    0  103    0 -5.5213548102E+01 -3.8414744485E+02  1.3214179486E+01  3.8832012402E+02  3.3000000000E-01 0. 9.
 1000022    1    5    0    0    0  7.0076581644E+01  6.8098170594E+00 -6.0484417575E+01  1.5889163669E+02  1.2896157000E+02 0. 9.
      25    2    5    0    0    0  4.9902570616E+01 -4.8506212804E+01 -1.2888135717E+00  1.4483988104E+02  1.2701893900E+02 0. 9.
       5    1   11    0  104    0 -2.1158644348E+01 -5.0623880691E+01 -3.5777442363E+01  6.5677476420E+01  4.8000000000E+00 0. 9.
      -5    1   11    0    0  104  7.1061214964E+01  2.1176678876E+00  3.4488628791E+01  7.9162404620E+01  4.8000000000E+00 0. 9.
</event>
<event>
    12   230  1.000000E+00  3.082046E+02  7.870856E-03  1.069774E-01
       2   -1    0    0  101    0  0.0000000000E+00  0.0000000000E+00  2.1130083585E+02  2.1130083585E+02  0.0000000000E+00 0. 9.
      -1   -1    0    0    0  101  0.0000000000E+00  0.0000000000E+00 -6.6102246588E+02  6.6102246588E+02  0.0000000000E+00 0. 9.
 1000024    2    1    2    0    0  2.8326619982E+01  1.4780392692E+02 -4.7159068049E+02  5.6340588565E+02  2.6903535800E+02 0. 9.
 1000023    2    1    2    0    0 -2.8326619982E+01 -1.4780392692E+02  2.1869050453E+01  3.0891741608E+02  2.6889276000E+02 0. 9.
 1000022    1    3    0    0    0  4.5363928391E-01  4.7711409526E+00 -2.8802263538E+02  3.1561225357E+02  1.2896157000E+02 0. 9.
      24    2    3    0    0    0  2.7872980698E+01  1.4303278596E+02 -1.8356804510E+02  2.4779363208E+02  8.0431188000E+01 0. 9.
 1000022    1    4    0    0    0  1.7476456779E+01 -7.9182526534E+01 -1.4879689645E+01  1.5306139536E+02  1.2896157000E+02 0. 9.
      25    2    4    0    0    0 -4.5803076760E+01 -6.8621400382E+01  3.6748740098E+01  1.5585602072E+02  1.2701893900E+02 0. 9.
      -1    1    6    0    0  102  1.0456898928E+01  1.2823265799E+02 -1.8443092909E+02  2.2487293704E+02  3.3000000000E-01 0. 9.
       4    1    6    0  102    0  1.7416081770E+01  1.4800127973E+01  8.6288398334E-01  2.2920695038E+01  1.5000000000E+00 0. 9.
       5    1    8    0  103    0 -5.8454828078E+01 -2.2857170791E+01 -3.3209069884E+01  7.1170917549E+01  4.8000000000E+00 0. 9.
      -5    1    8    0    0  103  1.2651751318E+01 -4.5764229592E+01  6.9957809982E+01  8.4685103171E+01  4.8000000000E+00 0. 9.
</event>
<event>
    13   258  1.000000E+00  9.379962E+02  7.971388E-03  9.340717E-02
      21   -1    0    0  101  102  0.0000000000E+00  0.0000000000E+00  6.3012327487E+02  6.3012327487E+02  0.0000000000E+00 0. 9.
       2   -1    0    0  102    0  0.0000000000E+00  0.0000000000E+00 -1.5425632114E+03  1.5425632114E+03  0.0000000000E+00 0. 9.
 1000021    2    1    2  101  103  7.7229460512E+01  9.0482802760E+01 -8.7775367402E+01  8.7757723864E+02  8.6503512500E+02 0. 9.
 1000002    2    1    2  103    0 -7.7229460512E+01 -9.0482802760E+01 -8.2466456914E+02  1.2951092477E+03  9.9150632100E+02 0. 9.
 1000022    1    3    0    0    0 -1.2571197549E+02  2.0807181589E+02  1.5693350573E+02  3.1679108748E+02  1.2896157000E+02 0. 9.
       2    1    3    0  101    0  2.2517047393E+02 -2.6232865381E+02 -1.1266920540E+02  3.6361040096E+02  3.3000000000E-01 0. 9.
      -2    1    3    0    0  103 -2.2229037924E+01  1.4473964068E+02 -1.3203966773E+02  1.9717575020E+02  3.3000000000E-01 0. 9.
 1000024    2    4    0    0    0  2.3575767859E+02 -2.2111312453E+02 -1.8998119243E+01  4.2096751566E+02  2.6903535800E+02 0. 9.
       1    1    4    0  103    0 -3.1298713910E+02  1.3063032177E+02 -8.0566644990E+02  8.7414173199E+02  3.3000000000E-01 0. 9.
 1000022    1    8    0    0    0  2.2216025325E+02 -1.5347046717E+02  3.6320750816E+01  3.0142767938E+02  1.2896157000E+02 0. 9.
      24    2    8    0    0    0  1.3597425333E+01 -6.7642657362E+01 -5.5318870059E+01  1.1953983628E+02  8.0431188000E+01 0. 9.
      -1    1   11    0    0  104  9.8805781667E+00 -5.5957168352E+01  5.8767792069E+00  5.7126840878E+01  3.3000000000E-01 0. 9.
       2    1   11    0  104    0  3.7168471668E+00 -1.1685489011E+01 -6.1195649266E+01  6.2412995405E+01  3.3000000000E-01 0. 9.
</event>
<event>
    12   226  1.000000E+00  2.713287E+02  7.859508E-03  1.087870E-01
      -2   -1    0    0    0  101  0.0000000000E+00  0.0000000000E+00  4.8380858258E+02  4.8380858258E+02  0.0000000000E+00 0. 9.
       2   -1    0    0  101    0  0.0000000000E+00  0.0000000000E+00 -1.5333664999E+02  1.5333664999E+02  0.0000000000E+00 0. 9.
-1000024    2    1    2    0    0 -2.8089034943E+01 -2.1219491254E+01  1.3740213415E+02  3.0413587591E+02  2.6903535800E+02 0. 9.
 1000024    2    1    2    0    0  2.8089034943E+01  2.1219491254E+01  1.9306979844E+02  3.3300935665E+02  2.6903535800E+02 0. 9.
 1000022    1    3    0    0    0  1.0540249781E+01  3.3143582455E-01 -1.0765136377E+01  1.2983905966E+02  1.2896157000E+02 0. 9.
     -24    2    3    0    0    0 -3.8629284724E+01 -2.1550927079E+01  1.4816727053E+02  1.7429681625E+02  8.0431188000E+01 0. 9.
 1000022    1    4    0    0    0  6.6310393208E+01 -5.4020297357E+01  1.1073095827E+02  1.9028319009E+02  1.2896157000E+02 0. 9.
      24    2    4    0    0    0 -3.8221358265E+01  7.5239788611E+01  8.2338840162E+01  1.4272616656E+02  8.0431188000E+01 0. 9.
       1    1    6    0  102    0  1.0232129862E+01 -7.9519536302E-01 -5.5487446003E+00  1.1671601596E+01  3.3000000000E-01 0. 9.
      -2    1    6    0    0  102 -4.8861414585E+01 -2.0755731716E+01  1.5371601513E+02  1.6262521466E+02  3.3000000000E-01 0. 9.
      -3    1    8    0    0  103  9.0415538158E+00  3.4790129466E+01  7.0848364172E+01  7.9447111398E+01  5.0000000000E-01 0. 9.
       4    1    8    0  103    0 -4.7262912081E+01  4.0449659146E+01  1.1490475990E+01  6.3279055159E+01  1.5000000000E+00 0. 9.
</event>
<event>
    12   226  1.000000E+00  3.171644E+02  7.873413E-03  1.065787E-01
       1   -1    0    0  101    0  0.0000000000E+00  0.0000000000E+00  3.5134541359E+02  3.5134541359E+02  0.0000000000E+00 0. 9.
      -1   -1    0    0    0  101  0.0000000000E+00  0.0000000000E+00 -1.3112542492E+03  1.3112542492E+03  0.0000000000E+00 0. 9.
-1000024    2    1    2    0    0  3.1504044266E+01 -1.6498707921E+02  2.5500714224E+02  4.0696671554E+02  2.6903535800E+02 0. 9.
 1000024    2    1    2    0    0 -3.1504044266E+01  1.6498707921E+02 -1.2149159778E+03  1.2556329472E+03  2.6903535800E+02 0. 9.
 1000022    1    3    0    0    0  6.7686602100E+01 -1.6351572253E+02  2.2456298401E+02  3.1365345199E+02  1.2896157000E+02 0. 9.
     -24    2    3    0    0    0 -3.6182557834E+01 -1.4713566795E+00  3.0444158228E+01  9.3313263555E+01  8.0431188000E+01 0. 9.
 1000022    1    4    0    0    0  5.4851118907E+01  1.3200698886E+02 -6.7013570076E+02  6.9724273702E+02  1.2896157000E+02 0. 9.
      24    2    4    0    0    0 -8.6355163173E+01  3.2980090349E+01 -5.4478027709E+02  5.5839021022E+02  8.0431188000E+01 0. 9.
       3    1    6    0  102    0 -9.5692309414E+00 -1.8684923219E+01 -2.3009649614E+01  3.1151091664E+01  5.0000000000E-01 0. 9.
      -4    1    6    0    0  102 -2.6613326893E+01  1.7213566539E+01  5.3453807842E+01  6.2162171890E+01  1.5000000000E+00 0. 9.
      -3    1    8    0    0  103 -8.8373972410E+01  4.8882714462E+01 -3.9342223280E+02  4.0617826387E+02  5.0000000000E-01 0. 9.
       4    1    8    0  103    0  2.0188092367E+00 -1.5902624114E+01 -1.5135804428E+02  1.5221194636E+02  1.5000000000E+00 0. 9.
</event>
<event>
    12   226  1.000000E+00  2.696554E+02  7.858957E-03  1.088764E-01
       2   -1    0    0  101    0  0.0000000000E+00  0.0000000000E+00  9.1053143036E+01  9.1053143036E+01  0.0000000000E+00 0. 9.
      -2   -1    0    0    0  101  0.0000000000E+00  0.0000000000E+00 -9.1606076367E+02  9.1606076367E+02  0.0000000000E+00 0. 9.
 1000024    2    1    2    0    0  1.6129855480E+01  8.5930221618E+00 -2.3217992844E+02  3.5583922674E+02  2.6903535800E+02 0. 9.
-1000024    2    1    2    0    0 -1.6129855480E+01 -8.5930221618E+00 -5.9282769220E+02  6.5127467996E+02  2.6903535800E+02 0. 9.
 1000022    1    3    0    0    0 -1.2191456852E+01  2.9162329876E+01 -2.3293205671E+02  2.6811844898E+02  1.2896157000E+02 0. 9.
      24    2    3    0    0    0  2.8321312332E+01 -2.0569307714E+01  7.5212827044E-01  8.7720777767E+01  8.0431188000E+01 0. 9.
 1000022    1    4    0    0    0  4.9964540927E+01  4.3448478166E+01 -2.4713498843E+02  2.8651529566E+02  1.2896157000E+02 0. 9.
     -24    2    4    0    0    0 -6.6094396407E+01 -5.2041500328E+01 -3.4569270377E+02  3.6475938430E+02  8.0431188000E+01 0. 9.
      -1    1    6    0    0  102  4.9923353415E+01  6.7584756651E+00 -9.7943755131E+00  5.1323064028E+01  3.3000000000E-01 0. 9.
       2    1    6    0  102    0 -2.1602041083E+01 -2.7327783379E+01  1.0546503784E+01  3.6397713739E+01  3.3000000000E-01 0. 9.
      11    1    8    0    0    0 -6.1400098340E+01 -6.7855001215E+01 -3.2818558923E+02  3.4070523073E+02  5.1000000000E-04 0. 9.
     -12    1    8    0    0    0 -4.6942980675E+00  1.5813500887E+01 -1.7507114540E+01  2.4054153575E+01  0.0000000000E+00 0. 9.
</event>
<event>
    19   273  1.000000E+00  1.072055E+03  7.983627E-03  9.200633E-02
       2   -1    0    0  101    0  0.0000000000E+00  0.0000000000E+00  1.5074523122E+03  1.5074523122E+03  0.0000000000E+00 0. 9.
       2   -1    0    0  102    0  0.0000000000E+00  0.0000000000E+00 -1.4333659452E+03  1.4333659452E+03  0.0000000000E+00 0. 9.
 2000002    2    1    2  102    0  8.1426189455E+01  3.9973957950E+02  1.0430592187E+03  1.4956832715E+03  9.9129912700E+02 0. 9.
 1000002    2    1    2  101    0 -8.1426189455E+01 -3.9973957950E+02 -9.6897285160E+02  1.4451349859E+03  9.9150632100E+02 0. 9.
 1000021    2    3    0  102  103  1.7883111020E+02  3.1735108164E+02  8.6327791920E+02  1.2752359814E+03  8.6503512500E+02 0. 9.
       2    1    3    0  103    0 -9.7404920743E+01  8.2388497859E+01  1.7978129950E+02  2.2044729010E+02  3.3000000000E-01 0. 9.
 1000024    2    4    0    0    0 -2.2175232929E+02 -2.2585240812E+02 -1.1070815486E+03  1.1824521068E+03  2.6903535800E+02 0. 9.
       1    1    4    0  101    0  1.4032613983E+02 -1.7388717138E+02  1.3810869698E+02  2.6268287910E+02  3.3000000000E-01 0. 9.
 1000024    2    5    0    0    0  2.1173231502E+02  4.3315280732E+01  8.2683099182E+02  8.9595552326E+02  2.6903535800E+02 0. 9.
      -2    1    5    0    0  103 -6.4287841250E+00  1.7071026372E+02  1.4721047761E+02  2.2550910630E+02  3.3000000000E-01 0. 9.
       1    1    5    0  102    0 -2.6472420700E+01  1.0332553718E+02 -1.1076355022E+02  1.5377135185E+02  3.3000000000E-01 0. 9.
 1000022    1    7    0    0    0 -2.0208144335E+02 -1.0230448121E+02 -7.9721631432E+02  8.3874194779E+02  1.2896157000E+02 0. 9.
      24    2    7    0    0    0 -1.9670885935E+01 -1.2354792691E+02 -3.0986523426E+02  3.4371015901E+02  8.0431188000E+01 0. 9.
 1000022    1    9    0    0    0  1.7116068883E+02  6.3757261024E+01  3.9074344302E+02  4.5019161979E+02  1.2896157000E+02 0. 9.
      24    2    9    0    0    0  4.0571626195E+01 -2.0441980292E+01  4.3608754880E+02  4.4576390346E+02  8.0431188000E+01 0. 9.
     -15    1   13    0    0    0  1.6763672585E+01 -4.0130386902E+00 -8.2169179406E+01  8.3976526311E+01  1.7770000000E+00 0. 9.
      16    1   13    0    0    0 -3.6434558519E+01 -1.1953488822E+02 -2.2769605486E+02  2.5973363270E+02  0.0000000000E+00 0. 9.
     -13    1   15    0    0    0  6.0928677830E+00  2.4943670284E+01  5.8342182444E+01  6.3742694808E+01  1.0566000000E-01 0. 9.
      14    1   15    0    0    0  3.4478758412E+01 -4.5385650576E+01  3.7774536635E+02  3.8202120865E+02  0.0000000000E+00 0. 9.
</event>
<event>
    12   230  1.000000E+00  2.840391E+02  7.863581E-03  1.081299E-01
       2   -1    0    0  101    0  0.0000000000E+00  0.0000000000E+00  5.6082167041E+02  5.6082167041E+02  0.0000000000E+00 0. 9.
      -1   -1    0    0    0  101  0.0000000000E+00  0.0000000000E+00 -1.6707003126E+02  1.6707003126E+02  0.0000000000E+00 0. 9.
 1000024    2    1    2    0    0 -8.0416079550E+01  4.3241353164E+01  3.3257607747E+02  4.3740534020E+02  2.6903535800E+02 0. 9.
 1000023    2    1    2    0    0  8.0416079550E+01 -4.3241353164E+01  6.1175561680E+01  2.9048636147E+02  2.6889276000E+02 0. 9.
 1000022    1    3    0    0    0 -6.4761675397E+00 -3.5023649117E+01  2.3814302891E+02  2.7315157971E+02  1.2896157000E+02 0. 9.
      24    2    3    0    0    0 -7.3939912010E+01  7.8265002281E+01  9.4433048556E+01  1.6425376048E+02  8.0431188000E+01 0. 9.
 1000022    1    4    0    0    0  2.5796963140E+01 -4.3862508356E+00 -6.4368832430E+00  1.3174688803E+02  1.2896157000E+02 0. 9.
      25    2    4    0    0    0  5.4619116410E+01 -3.8855102329E+01  6.7612444923E+01  1.5873947344E+02  1.2701893900E+02 0. 9.
     -13    1    6    0    0    0 -4.8476832934E+01  9.0822794417E+01  5.8337141622E+01  1.1833011693E+02  1.0566000000E-01 0. 9.
      14    1    6    0    0    0 -2.5463079076E+01 -1.2557792136E+01  3.6095906935E+01  4.5923643549E+01  0.0000000000E+00 0. 9.
       5    1    8    0  102    0 -1.7276409759E+01 -6.3276466728E+01  1.9015716393E+01  6.8461836417E+01  4.8000000000E+00 0. 9.
      -5    1    8    0    0  102  7.1895526169E+01  2.4421364399E+01  4.8596728530E+01  9.0277637021E+01  4.8000000000E+00 0. 9.
</event>
<event>
    12   226  1.000000E+00  2.770017E+02  7.861348E-03  1.084890E-01
      -2   -1    0    0    0  101  0.0000000000E+00  0.0000000000E+00  5.6173685235E+02  5.6173685235E+02  0.0000000000E+00 0. 9.
       2   -1    0    0  101    0  0.0000000000E+00  0.0000000000E+00 -1.3856703842E+02  1.3856703842E+02  0.0000000000E+00 0. 9.
-1000024    2    1    2    0    0  5.9512210948E+01 -2.8429249916E+01  1.6980365342E+02  3.2490495544E+02  2.6903535800E+02 0. 9.
 1000024    2    1    2    0    0 -5.9512210948E+01  2.8429249916E+01  2.5336616050E+02  3.7539893533E+02  2.6903535800E+02 0. 9.
 1000022    1    3    0    0    0  2.7111124951E+01 -8.3808657288E+01  1.5661615924E+02  2.2117552307E+02  1.2896157000E+02 0. 9.
     -24    2    3    0    0    0  3.2401085997E+01  5.5379407372E+01  1.3187494176E+01  1.0372943237E+02  8.0431188000E+01 0. 9.
 1000022    1    4    0    0    0 -1.1376033429E+02  7.7110203668E+00  1.9577295002E+02  2.6068948577E+02  1.2896157000E+02 0. 9.
      24    2    4    0    0    0  5.4248123342E+01  2.0718229549E+01  5.7593210486E+01  1.1470944956E+02  8.0431188000E+01 0. 9.
       1    1    6    0  102    0 -2.1051778438E+00  5.5566815315E+00  3.7837189502E+01  3.8302353620E+01  3.3000000000E-01 0. 9.
      -2    1    6    0    0  102  3.4506263840E+01  4.9822725840E+01 -2.4649695327E+01  6.5427078752E+01  3.3000000000E-01 0. 9.
      -1    1    8    0    0  103  3.1258843785E+01  4.5674599718E+01  9.9777962344E+00  5.6240107503E+01  3.3000000000E-01 0. 9.
       2    1    8    0  103    0  2.2989279557E+01 -2.4956370169E+01  4.7615414252E+01  5.8469342060E+01  3.3000000000E-01 0. 9.
</event>
<event>
    12   226  1.000000E+00  6.716559E+02  7.940950E-03  9.710365E-02
      -2   -1    0    0    0  101  0.0000000000E+00  0.0000000000E+00  2.1693378191E+02  2.1693378191E+02  0.0000000000E+00 0. 9.
       2   -1    0    0  101    0  0.0000000000E+00  0.0000000000E+00 -2.0983119523E+03  2.0983119523E+03  0.0000000000E+00 0. 9.
-1000024    2    1    2    0    0 -3.9712709271E+02 -4.7014005654E+02 -8.3118451575E+02  1.0686390053E+03  2.6903535800E+02 0. 9.
 1000024    2    1    2    0    0  3.9712709271E+02  4.7014005654E+02 -1.0501936546E+03  1.2466067289E+03  2.6903535800E+02 0. 9.
 1000022    1    3    0    0    0 -8.4383734028E+01 -1.8243094334E+02 -2.7946144368E+02  3.6760229691E+02  1.2896157000E+02 0. 9.
     -24    2    3    0    0    0 -3.1274335868E+02 -2.8770911320E+02 -5.5172307207E+02  7.0103670836E+02  8.0431188000E+01 0. 9.
 1000022    1    4    0    0    0  1.3466968413E+02  2.5301526206E+02 -5.8940209997E+02  6.6796599363E+02  1.2896157000E+02 0. 9.
      24    2    4    0    0    0  2.6245740858E+02  2.1712479448E+02 -4.6079155463E+02  5.7864073527E+02  8.0431188000E+01 0. 9.
       1    1    6    0  102    0 -8.7479090296E+01 -1.3083273254E+02 -2.1911099155E+02  2.6977681638E+02  3.3000000000E-01 0. 9.
      -2    1    6    0    0  102 -2.2526426838E+02 -1.5687638067E+02 -3.3261208052E+02  4.3125989198E+02  3.3000000000E-01 0. 9.
      -1    1    8    0    0  103  2.3258111611E+02  1.5285526826E+02 -3.8243437393E+02  4.7298506094E+02  3.3000000000E-01 0. 9.
       2    1    8    0  103    0  2.9876292464E+01  6.4269526217E+01 -7.8357180700E+01  1.0565567433E+02  3.3000000000E-01 0. 9.
</event>
<event>
    26   244  1.000000E+00  9.137495E+02  7.968992E-03  9.368682E-02
      21   -1    0    0  101  102  0.0000000000E+00  0.0000000000E+00  9.5210736850E+02  9.5210736850E+02  0.0000000000E+00 0. 9.
      21   -1    0    0  103  101  0.0000000000E+00  0.0000000000E+00 -1.2358548565E+03  1.2358548565E+03  0.0000000000E+00 0. 9.
 1000021    2    1    2  104  102  5.4488816958E+01  2.8928060492E+02  4.4768039656E+02  1.0175243508E+03  8.6503512500E+02 0. 9.
 1000021    2    1    2  103  104 -5.4488816958E+01 -2.8928060492E+02 -7.3142788461E+02  1.1704378742E+03  8.6503512500E+02 0. 9.
 1000024    2    3    0    0    0 -1.2821391783E+02  5.9681043228E+01  4.1469505385E+02  5.1415235795E+02  2.6903535800E+02 0. 9.
      -6    2    3    0    0  102  2.8372133126E+02  2.2418110518E+02  2.2909131414E+01  4.0159436006E+02  1.7320000000E+02 0. 9.
       5    1    3    0  104    0 -1.0101859648E+02  5.4184565132E+00  1.0076211295E+01  1.0177763280E+02  4.8000000000E+00 0. 9.
 1000024    2    4    0    0    0 -2.6979784737E+01 -3.9374288612E+02 -4.8802697261E+02  6.8287020656E+02  2.6903535800E+02 0. 9.
      -6    2    4    0    0  104 -1.1911652767E+02 -6.8961190796E+01 -1.6632978093E+02  2.7678191600E+02  1.7320000000E+02 0. 9.
       5    1    4    0  103    0  9.1607495447E+01  1.7342347200E+02 -7.7071131071E+01  2.1078575167E+02  4.8000000000E+00 0. 9.
 1000022    1    5    0    0    0 -1.0028164187E+02  1.0166980990E+02  1.9087123285E+02  2.7102780671E+02  1.2896157000E+02 0. 9.
      24    2    5    0    0    0 -2.7932275952E+01 -4.1988766676E+01  2.2382382100E+02  2.4312455124E+02  8.0431188000E+01 0. 9.
     -24    2    6    0    0    0  2.3916566909E+02  1.0939918318E+02  3.7284959598E+01  2.7753872300E+02  8.0431188000E+01 0. 9.
      -5    1    6    0    0  102  4.4555662170E+01  1.1478192200E+02 -1.4375828184E+01  1.2405563706E+02  4.8000000000E+00 0. 9.
 1000022    1    8    0    0    0  3.3708793890E+01 -2.7580533947E+02 -4.0226906568E+02  5.0562471835E+02  1.2896157000E+02 0. 9.
      24    2    8    0    0    0 -6.0688578626E+01 -1.1793754665E+02 -8.5757906925E+01  1.7724548821E+02  8.0431188000E+01 0. 9.
     -24    2    9    0    0    0 -4.9494100654E+01  2.8432612677E-01 -1.4980776529E+02  1.7709118946E+02  8.0431188000E+01 0. 9.
      -5    1    9    0    0  104 -6.9622427014E+01 -6.9245516923E+01 -1.6522015647E+01  9.9690726541E+01  4.8000000000E+00 0. 9.
      -3    1   12    0    0  105 -4.2416063527E+01  5.7040617720E+00  1.3011519556E+02  1.3697398615E+02  5.0000000000E-01 0. 9.
       4    1   12    0  105    0  1.4483787575E+01 -4.7692828449E+01  9.3708625438E+01  1.0615056509E+02  1.5000000000E+00 0. 9.
       1    1   13    0  106    0  1.0847559180E+02  3.0952666592E+01  5.2366369846E+01  1.2436787035E+02  3.3000000000E-01 0. 9.
      -2    1   13    0    0  106  1.3069007729E+02  7.8446516583E+01 -1.5081410248E+01  1.5317085265E+02  3.3000000000E-01 0. 9.
      -3    1   16    0    0  107 -7.8712950066E+01 -8.4265150717E+01 -5.3006716161E+01  1.2691062245E+02  5.0000000000E-01 0. 9.
       4    1   16    0  107    0  1.8024371440E+01 -3.3672395937E+01 -3.2751190764E+01  5.0334865753E+01  1.5000000000E+00 0. 9.
       3    1   17    0  108    0  3.0970200276E+00  5.4972273993E+00 -1.1179544458E+02  1.1197447241E+02  5.0000000000E-01 0. 9.
      -4    1   17    0    0  108 -5.2591120682E+01 -5.2129012725E+00 -3.8012320710E+01  6.5116717055E+01  1.5000000000E+00 0. 9.
</event>
<event>
    20   258  1.000000E+00  9.736096E+02  7.974798E-03  9.301213E-02
      21   -1    0    0  101  102  0.0000000000E+00  0.0000000000E+00  8.3503573118E+02  8.3503573118E+02  0.0000000000E+00 0. 9.
       2   -1    0    0  102    0  0.0000000000E+00  0.0000000000E+00 -1.2502586854E+03  1.2502586854E+03  0.0000000000E+00 0. 9.
 1000021    2    1    2  101  103 -6.4479238095E+01 -2.7941494248E+02  1.2577432200E+02  9.1996479812E+02  8.6503512500E+02 0. 9.
 1000002    2    1    2  103    0  6.4479238095E+01  2.7941494248E+02 -5.4099727624E+02  1.1653296185E+03  9.9150632100E+02 0. 9.
-1000024    2    3    0    0    0  2.3539752567E+02 -4.8025246688E+01  2.4552844994E+00  3.6069997462E+02  2.6903535800E+02 0. 9.
       2    1    3    0  101    0 -2.3872359052E+02 -2.6257415423E+01  2.1879407114E+02  3.2488360840E+02  3.3000000000E-01 0. 9.
      -1    1    3    0    0  103 -6.1153173244E+01 -2.0513228037E+02 -9.5475033645E+01  2.3438121511E+02  3.3000000000E-01 0. 9.
 1000021    2    4    0  103  104  7.1356272455E+01  3.6372648517E+02 -5.2984709516E+02  1.0800057340E+03  8.6503512500E+02 0. 9.
       2    1    4    0  104    0 -6.8770343598E+00 -8.4311542694E+01 -1.1150181081E+01  8.5323884529E+01  3.3000000000E-01 0. 9.
 1000022    1    5    0    0    0  2.1302025830E+02 -8.3626613943E+01  3.3427219062E+01  2.6480088088E+02  1.2896157000E+02 0. 9.
     -24    2    5    0    0    0  2.2377267375E+01  3.5601367255E+01 -3.0971934562E+01  9.5899093735E+01  8.0431188000E+01 0. 9.
 1000023    2    8    0    0    0  4.5471547810E+01 -1.9547021357E+02 -2.7071103983E+02  4.3111953044E+02  2.6889276000E+02 0. 9.
       3    1    8    0  103    0 -6.1189909529E+01  3.1725383301E+02 -2.1472204959E+02  3.8794330535E+02  5.0000000000E-01 0. 9.
      -3    1    8    0    0  104  8.7074634174E+01  2.4194286573E+02 -4.4414005735E+01  2.6094289816E+02  5.0000000000E-01 0. 9.
      13    1   11    0    0    0  4.1543063322E+00  5.4619868451E+01 -4.0247435643E+01  6.7973932729E+01  1.0566000000E-01 0. 9.
     -14    1   11    0    0    0  1.8222961043E+01 -1.9018501196E+01  9.2755010811E+00  2.7925161006E+01  0.0000000000E+00 0. 9.
 1000022    1   12    0    0    0  5.9605714339E+01 -9.9164057722E+01 -1.6554213577E+02  2.3962812184E+02  1.2896157000E+02 0. 9.
      25    2   12    0    0    0 -1.4134166529E+01 -9.6306155849E+01 -1.0516890407E+02  1.9149140859E+02  1.2701893900E+02 0. 9.
       5    1   18    0  105    0 -1.1364315647E+01 -4.4833292862E+01 -1.2704616923E+02  1.3528836215E+02  4.8000000000E+00 0. 9.
      -5    1   18    0    0  105 -2.7698508818E+00 -5.1472862988E+01  2.1877265162E+01  5.6203046439E+01  4.8000000000E+00 0. 9.
</event>
<event>
    12   226  1.000000E+00  3.094818E+02  7.871225E-03  1.069197E-01
       1   -1    0    0  101    0  0.0000000000E+00  0.0000000000E+00  1.3106512055E+02  1.3106512055E+02  0.0000000000E+00 0. 9.
      -1   -1    0    0    0  101  0.0000000000E+00  0.0000000000E+00 -8.0991132031E+02  8.0991132031E+02  0.0000000000E+00 0. 9.
-1000024    2    1    2    0    0  1.2539004774E+02 -8.7614334726E+01 -4.8649210958E+02  5.7658783568E+02  2.6903535800E+02 0. 9.
 1000024    2    1    2    0    0 -1.2539004774E+02  8.7614334726E+01 -1.9235409018E+02  3.6438860518E+02  2.6903535800E+02 0. 9.
 1000022    1    3    0    0    0  7.4752588709E+01 -3.7835153302E+01 -1.2102576804E+02  1.9569816405E+02  1.2896157000E+02 0. 9.
     -24    2    3    0    0    0  5.0637459029E+01 -4.9779181424E+01 -3.6546634154E+02  3.8088967163E+02  8.0431188000E+01 0. 9.
 1000022    1    4    0    0    0 -1.2198563279E+02  2.1929642307E+01 -4.5614139768E+01  1.8458911155E+02  1.2896157000E+02 0. 9.
      24    2    4    0    0    0 -3.4044149478E+00  6.5684692419E+01 -1.4673995041E+02  1.7979949363E+02  8.0431188000E+01 0. 9.
       3    1    6    0  102    0 -1.3251434613E+01  1.1785918340E+01 -4.5197140763E+01  4.8554504668E+01  5.0000000000E-01 0. 9.
      -4    1    6    0    0  102  6.3888893642E+01 -6.1565099764E+01 -3.2026920077E+02  3.3233516697E+02  1.5000000000E+00 0. 9.
     -15    1    8    0    0    0 -1.8046097586E+01 -1.1841837567E+01 -5.3137303724E+01  5.7381369198E+01  1.7770000000E+00 0. 9.
      16    1    8    0    0    0  1.4641682638E+01  7.7526529986E+01 -9.3602646690E+01  1.2241812443E+02  0.0000000000E+00 0. 9.
</event>
<event>
    14   254  1.000000E+00  7.704255E+02  7.953425E-03  9.555041E-02
       1   -1    0    0  101    0  0.0000000000E+00  0.0000000000E+00  6.9782828095E+02  6.9782828095E+02  0.0000000000E+00 0. 9.
      21   -1    0    0  102  101  0.0000000000E+00  0.0000000000E+00 -6.9894688616E+02  6.9894688616E+02  0.0000000000E+00 0. 9.
 1000002    2    1    2  102    0  2.5653791369E+02  3.3752335849E+00 -2.2434978389E+01  1.0244077344E+03  9.9150632100E+02 0. 9.
-1000024    2    1    2    0    0 -2.5653791369E+02 -3.3752335849E+00  2.1316373180E+01  3.7236743276E+02  2.6903535800E+02 0. 9.
 1000023    2    3    0    0    0 -1.6321540892E+02 -3.5109609440E+02  3.1012996241E+01  4.7241174787E+02  2.6889276000E+02 0. 9.
       2    1    3    0  102    0  4.1975332261E+02  3.5447132798E+02 -5.3447974630E+01  5.5199598648E+02  3.3000000000E-01 0. 9.
 1000022    1    4    0    0    0 -2.1464773225E+02 -6.3441199606E+01 -1.2017579855E+01  2.5859996815E+02  1.2896157000E+02 0. 9.
     -24    2    4    0    0    0 -4.1890181440E+01  6.0065966021E+01  3.3333953035E+01  1.1376746461E+02  8.0431188000E+01 0. 9.
 1000022    1    5    0    0    0 -9.4984000846E+01 -1.1139012075E+02 -3.6722910277E+01  1.9851795409E+02  1.2896157000E+02 0. 9.
      23    2    5    0    0    0 -6.8231408071E+01 -2.3970597364E+02  6.7735906518E+01  2.7389379378E+02  9.1187600000E+01 0. 9.
       3    1    8    0  103    0  9.4193726778E+00  7.2612757168E+00  3.8153307361E+01  3.9967181152E+01  5.0000000000E-01 0. 9.
      -4    1    8    0    0  103 -5.1309554118E+01  5.2804690304E+01 -4.8193543263E+00  7.3800283455E+01  1.5000000000E+00 0. 9.
      14    1   10    0    0    0  9.1430678719E+00 -1.3134047495E+02  2.4676268191E+01  1.3395086511E+02  0.0000000000E+00 0. 9.
     -14    1   10    0    0    0 -7.7374475942E+01 -1.0836549869E+02  4.3059638327E+01  1.3994292868E+02  0.0000000000E+00 0. 9.
</event>
<event>
    12   230  1.000000E+00  3.760673E+02  7.888645E-03  1.042689E-01
      -1   -1    0    0    0  101  0.0000000000E+00  0.0000000000E+00  3.1086593755E+02  3.1086593755E+02  0.0000000000E+00 0. 9.
       2   -1    0    0  101    0  0.0000000000E+00  0.0000000000E+00 -7.9576347340E+02  7.9576347340E+02  0.0000000000E+00 0. 9.
 1000023    2    1    2    0    0  1.3911732663E+01 -2.6247179616E+02  1.1968151154E+02  3.9460354873E+02  2.6889276000E+02 0. 9.
 1000024    2    1    2    0    0 -1.3911732663E+01  2.6247179616E+02 -6.0457904739E+02  7.1202586223E+02  2.6903535800E+02 0. 9.
 1000022    1    3    0    0    0  2.1145025007E+01 -9.0576216056E+01  2.5945102687E+01  1.6110679032E+02  1.2896157000E+02 0. 9.
      25    2    3    0    0    0 -7.2332923444E+00 -1.7189558010E+02  9.3736408855E+01  2.3349675841E+02  1.2701893900E+02 0. 9.
 1000022    1    4    0    0    0 -1.1328713286E+00  3.3793645391E+01 -2.0876685308E+02  2.4770542858E+02  1.2896157000E+02 0. 9.
      24    2    4    0    0    0 -1.2778861334E+01  2.2867815077E+02 -3.9581219431E+02  4.6432043365E+02  8.0431188000E+01 0. 9.
       5    1    6    0  102    0 -1.0733013041E+01  1.6723386636E+01  2.5824394534E+01  3.2936432451E+01  4.8000000000E+00 0. 9.
      -5    1    6    0    0  102  3.4997206967E+00 -1.8861896674E+02  6.7912014321E+01  2.0056032596E+02  4.8000000000E+00 0. 9.
      -1    1    8    0    0  103 -3.6843067716E+01  5.1761211394E+01 -8.9269686010E+01  1.0957107458E+02  3.3000000000E-01 0. 9.
       2    1    8    0  103    0  2.4064206382E+01  1.7691693937E+02 -3.0654250830E+02  3.5474935907E+02  3.3000000000E-01 0. 9.
</event>
<event>
    28   258  1.000000E+00  9.738439E+02  7.974820E-03  9.300959E-02
       2   -1    0    0  101    0  0.0000000000E+00  0.0000000000E+00  2.1733877569E+03  2.1733877569E+03  0.0000000000E+00 0. 9.
      21   -1    0    0  102  101  0.0000000000E+00  0.0000000000E+00 -4.4202965506E+02  4.4202965506E+02  0.0000000000E+00 0. 9.
 1000002    2    1    2  103    0 -3.1450889128E+01  2.8582791721E+02  1.0868942304E+03  1.4990365604E+03  9.9150632100E+02 0. 9.
 1000021    2    1    2  102  103  3.1450889128E+01 -2.8582791721E+02  6.4446387137E+02  1.1163808515E+03  8.6503512500E+02 0. 9.
 1000021    2    3    0  103  104 -4.5185959868E+01  1.8065635707E+02  7.9894236758E+02  1.1921716171E+03  8.6503512500E+02 0. 9.
       2    1    3    0  104    0  1.3735070740E+01  1.0517156014E+02  2.8795186286E+02  3.0686494335E+02  3.3000000000E-01 0. 9.
 1000023    2    4    0    0    0  2.4595014594E+02 -5.8814286417E+01  1.4908913648E+02  3.9809732676E+02  2.6889276000E+02 0. 9.
       6    2    4    0  102    0 -4.7780159230E+01  1.2993622619E+01  1.8315249323E+02  2.5689463525E+02  1.7320000000E+02 0. 9.
      -6    2    4    0    0  103 -1.6671909758E+02 -2.4000725341E+02  3.1222224166E+02  4.6138888952E+02  1.7320000000E+02 0. 9.
 1000023    2    5    0    0    0  2.1827399196E+02 -1.0706104035E+02  6.4187069821E+02  7.3716138771E+02  2.6889276000E+02 0. 9.
       4    1    5    0  103    0 -1.8591483744E+02  1.0507698112E+02  2.1385660944E+01  2.1462780629E+02  1.5000000000E+00 0. 9.
      -4    1    5    0    0  104 -7.7545114390E+01  1.8264041630E+02  1.3568600843E+02  2.4038242306E+02  1.5000000000E+00 0. 9.
 1000022    1    7    0    0    0  1.7343572878E+02 -1.7815086055E+01  9.6388726102E+01  2.3731667106E+02  1.2896157000E+02 0. 9.
      25    2    7    0    0    0  7.2514417160E+01 -4.0999200363E+01  5.2700410377E+01  1.6078065569E+02  1.2701893900E+02 0. 9.
      24    2    8    0    0    0 -7.7830228062E+00  4.6568284655E+01  1.8192588337E+02  2.0443919297E+02  8.0431188000E+01 0. 9.
       5    1    8    0  102    0 -3.9997136424E+01 -3.3574662036E+01  1.2266098576E+00  5.2455442279E+01  4.8000000000E+00 0. 9.
     -24    2    9    0    0    0 -1.3484918423E+01 -1.0777765367E+02  1.0033039589E+02  1.6832477535E+02  8.0431188000E+01 0. 9.
      -5    1    9    0    0  103 -1.5323417916E+02 -1.3222959974E+02  2.1189184577E+02  2.9306411417E+02  4.8000000000E+00 0. 9.
 1000022    1   10    0    0    0  1.2237569407E+02 -9.8193705418E+01  3.5797722805E+02  4.1157817802E+02  1.2896157000E+02 0. 9.
      25    2   10    0    0    0  9.5898297891E+01 -8.8673349333E+00  2.8389347016E+02  3.2558320969E+02  1.2701893900E+02 0. 9.
      21    1   14    0  105  106  9.1189610283E+01  1.0424374401E+01  5.3164147922E+01  1.0606903049E+02  0.0000000000E+00 0. 9.
      21    1   14    0  106  105 -1.8675193123E+01 -5.1423574764E+01 -4.6373754504E-01  5.4711625201E+01  0.0000000000E+00 0. 9.
     -15    1   15    0    0    0 -2.2932540306E+01  4.8734979129E+00  1.4449618226E+02  1.4639657374E+02  1.7770000000E+00 0. 9.
      16    1   15    0    0    0  1.5149517499E+01  4.1694786742E+01  3.7429701113E+01  5.8042619232E+01  0.0000000000E+00 0. 9.
       3    1   17    0  107    0 -5.6211039811E+00 -4.8855203906E+01  9.7015127081E+01  1.0876861975E+02  5.0000000000E-01 0. 9.
      -4    1   17    0    0  107 -7.8638144421E+00 -5.8922449762E+01  3.3152688094E+00  5.9556155608E+01  1.5000000000E+00 0. 9.
       5    1   20    0  108    0 -2.3631230052E+01  1.3330169649E+01  1.0969333868E+02  1.1310082673E+02  4.8000000000E+00 0. 9.
      -5    1   20    0    0  108  1.1952952794E+02 -2.2197504582E+01  1.7420013149E+02  2.1248238296E+02  4.8000000000E+00 0. 9.
</event>
<event>
    12   230  1.000000E+00  3.078905E+02  7.870766E-03  1.069916E-01
      -1   -1    0    0    0  101  0.0000000000E+00  0.0000000000E+00  1.5459811659E+02  1.5459811659E+02  0.0000000000E+00 0. 9.
       2   -1    0    0  101    0  0.0000000000E+00  0.0000000000E+00 -7.4209540647E+02  7.4209540647E+02  0.0000000000E+00 0. 9.
 1000023    2    1    2    0    0  1.3389087210E+02  6.7291153138E+01 -4.8056797410E+02  5.7070461627E+02  2.6889276000E+02 0. 9.
 1000024    2    1    2    0    0 -1.3389087210E+02 -6.7291153138E+01 -1.0692931578E+02  3.2598890679E+02  2.6903535800E+02 0. 9.
 1000022    1    3    0    0    0  1.0155412075E+02  5.0740497084E+01 -4.2382815794E+02  4.5732836287E+02  1.2896157000E+02 0. 9.
      23    2    3    0    0    0  3.2336751348E+01  1.6550656053E+01 -5.6739816160E+01  1.1337625340E+02  9.1187600000E+01 0. 9.
 1000022    1    4    0    0    0  4.8024090842E+00 -7.0874637911E+01 -4.3396765148E+01  1.5349476602E+02  1.2896157000E+02 0. 9.
      24    2    4    0    0    0 -1.3869328118E+02  3.5834847735E+00 -6.3532550637E+01  1.7249414077E+02  8.0431188000E+01 0. 9.
       3    1    6    0  102    0  6.0958583660E+01  4.0925611552E+00 -5.4838556886E+01  8.2098814243E+01  5.0000000000E-01 0. 9.
      -3    1    6    0    0  102 -2.8621832313E+01  1.2458094898E+01 -1.9012592735E+00  3.1277439158E+01  5.0000000000E-01 0. 9.
     -11    1    8    0    0    0 -3.4098926277E+01 -2.4229270961E+01  8.2334189703E+00  4.2633127175E+01  5.1000000000E-04 0. 9.
      12    1    8    0    0    0 -1.0459435490E+02  2.7812755734E+01 -7.1765969607E+01  1.2986101360E+02  0.0000000000E+00 0. 9.
</event>
<event>
    12   230  1.000000E+00  3.845843E+02  7.890652E-03  1.039726E-01
       1   -1    0    0  101    0  0.0000000000E+00  0.0000000000E+00  4.9973944970E+02  4.9973944970E+02  0.0000000000E+00 0. 9.
      -2   -1    0    0    0  101  0.0000000000E+00  0.0000000000E+00 -3.5124068201E+02  3.5124068201E+02  0.0000000000E+00 0. 9.
 1000023    2    1    2    0    0 -2.6929337125E+02  5.5176992771E+01  2.4303504280E+02  4.5489863568E+02  2.6889276000E+02 0. 9.
-1000024    2    1    2    0    0  2.6929337125E+02 -5.5176992771E+01 -9.4536275108E+01  3.9608149603E+02  2.6903535800E+02 0. 9.
 1000022    1    3    0    0    0 -1.3494046763E+02  6.3508540723E+01  1.5010354390E+02  2.4779916259E+02  1.2896157000E+02 0. 9.
      25    2    3    0    0    0 -1.3435290362E+02 -8.3315479520E+00  9.2931498898E+01  2.0709947309E+02  1.2701893900E+02 0. 9.
 1000022    1    4    0    0    0  2.1393752219E+02 -4.6185722247E+01 -1.3769350250E+02  2.8895150373E+02  1.2896157000E+02 0. 9.
     -24    2    4    0    0    0  5.5355849059E+01 -8.9912705242E+00  4.3157227390E+01  1.0712999230E+02  8.0431188000E+01 0. 9.
       5    1    6    0  102    0 -8.1222727320E+01  3.8796331672E+01  1.0110095356E+02  1.3545010002E+02  4.8000000000E+00 0. 9.
      -5    1    6    0    0  102 -5.3130176300E+01 -4.7127879624E+01 -8.1694546666E+00  7.1649373068E+01  4.8000000000E+00 0. 9.
       1    1    8    0  103    0  2.1455426800E+01 -3.1431412287E+01  5.3048598281E+01  6.5288067034E+01  3.3000000000E-01 0. 9.
      -2    1    8    0    0  103  3.3900422259E+01  2.2440141762E+01 -9.8913708908E+00  4.1841925264E+01  3.3000000000E-01 0. 9.
</event>
<event>
    26   273  1.000000E+00  1.504156E+03  8.014823E-03  8.863646E-02
       2   -1    0    0  101    0  0.0000000000E+00  0.0000000000E+00  2.6159400865E+03  2.6159400865E+03  0.0000000000E+00 0. 9.
       2   -1    0    0  102    0  0.0000000000E+00  0.0000000000E+00 -1.1253790774E+03  1.1253790774E+03  0.0000000000E+00 0. 9.
 2000002    2    1    2  102    0 -9.0745236063E+02  6.7537800496E+02  1.6452599622E+03  2.2291611738E+03  9.9129912700E+02 0. 9.
 1000002    2    1    2  101    0  9.0745236063E+02 -6.7537800496E+02 -1.5469895313E+02  1.5121579901E+03  9.9150632100E+02 0. 9.
 1000021    2    3    0  102  103 -8.5870645061E+02  5.7158164275E+02  1.3246800093E+03  1.8886887613E+03  8.6503512500E+02 0. 9.
       2    1    3    0  103    0 -4.8745910019E+01  1.0379636220E+02  3.2057995293E+02  3.4047241250E+02  3.3000000000E-01 0. 9.
 1000021    2    4    0  101  104  9.4441193451E+02 -6.8398606252E+02 -1.1379487836E+02  1.4563604903E+03  8.6503512500E+02 0. 9.
       2    1    4    0  104    0 -3.6959573885E+01  8.6080575646E+00 -4.0904074772E+01  5.5797499853E+01  3.3000000000E-01 0. 9.
 1000023    2    5    0    0    0 -1.8543533026E+02 -1.0252275536E+02  3.9101242988E+02  5.1970300536E+02  2.6889276000E+02 0. 9.
       1    1    5    0  102    0 -5.8949770116E+02  4.0361251164E+02  7.1949942702E+02  1.0139477963E+03  3.3000000000E-01 0. 9.
      -1    1    5    0    0  103 -8.3773419195E+01  2.7049188648E+02  2.1416815239E+02  3.5503795968E+02  3.3000000000E-01 0. 9.
 1000024    2    7    0    0    0  3.5607877292E+02 -1.4459517626E+02 -3.1083881947E+02  5.6276163077E+02  2.6903535800E+02 0. 9.
      -6    2    7    0    0  104  1.8080083696E+02 -3.2512597712E+02  7.3829233501E+01  4.1694704623E+02  1.7320000000E+02 0. 9.
       5    1    7    0  101    0  4.0753232464E+02 -2.1426490915E+02  1.2321470762E+02  4.7665181326E+02  4.8000000000E+00 0. 9.
 1000022    1    9    0    0    0 -9.9993849957E+01 -3.6011944533E+01  9.6594805512E+01  1.9302143189E+02  1.2896157000E+02 0. 9.
      23    2    9    0    0    0 -8.5441480302E+01 -6.6510810828E+01  2.9441762437E+02  3.2668157347E+02  9.1187600000E+01 0. 9.
 1000022    1   12    0    0    0  1.3625901168E+02  2.4449592307E+00 -8.5785941811E+01  2.0630756273E+02  1.2896157000E+02 0. 9.
      24    2   12    0    0    0  2.1981976124E+02 -1.4704013549E+02 -2.2505287766E+02  3.5645406804E+02  8.0431188000E+01 0. 9.
     -24    2   13    0    0    0  1.3167058943E+02 -2.3047789295E+02 -1.5449609314E+01  2.7778601421E+02  8.0431188000E+01 0. 9.
      -5    1   13    0    0  104  4.9130247533E+01 -9.4648084166E+01  8.9278842816E+01  1.3916103202E+02  4.8000000000E+00 0. 9.
      11    1   16    0    0    0 -1.6263561293E+01 -6.8493442601E+01  1.2137628033E+02  1.4031413518E+02  5.1000000000E-04 0. 9.
     -11    1   16    0    0    0 -6.9177919009E+01  1.9826317726E+00  1.7304134404E+02  1.8636743829E+02  5.1000000000E-04 0. 9.
     -11    1   18    0    0    0  1.2408046662E+02 -5.3594121586E+01 -1.5425316075E+02  2.0509102776E+02  5.1000000000E-04 0. 9.
      12    1   18    0    0    0  9.5739294621E+01 -9.3446013905E+01 -7.0799716910E+01  1.5136304028E+02  0.0000000000E+00 0. 9.
       3    1   19    0  105    0  1.2111915237E+02 -2.2553940634E+02  2.8745692392E+00  2.5602028441E+02  5.0000000000E-01 0. 9.
      -4    1   19    0    0  105  1.0551437055E+01 -4.9384866148E+00 -1.8324178554E+01  2.1765729798E+01  1.5000000000E+00 0. 9.
</event>
<event>
    13   259  1.000000E+00  9.352414E+02  7.971118E-03  9.343849E-02
       2   -1    0    0  101    0  0.0000000000E+00  0.0000000000E+00  7.9307666374E+02  7.9307666374E+02  0.0000000000E+00 0. 9.
      21   -1    0    0  102  101  0.0000000000E+00  0.0000000000E+00 -1.1018901886E+03  1.1018901886E+03  0.0000000000E+00 0. 9.
 2000002    2    1    2  103    0  7.2603698948E+01  6.2652778680E+01 -2.2151912697E+02  1.0202653334E+03  9.9129912700E+02 0. 9.
 1000021    2    1    2  102  103 -7.2603698948E+01 -6.2652778680E+01 -8.7294397862E+01  8.7470151890E+02  8.6503512500E+02 0. 9.
 1000022    1    3    0    0    0  4.0548789842E+02  3.5274830604E+02 -9.3748141826E+01  5.6059932555E+02  1.2896157000E+02 0. 9.
       2    1    3    0  103    0 -3.3288419947E+02 -2.9009552736E+02 -1.2777098514E+02  4.5966600787E+02  3.3000000000E-01 0. 9.
-1000024    2    4    0    0    0 -1.5896896294E+02  1.4953173645E+02 -3.3010703844E+02  4.7852016892E+02  2.6903535800E+02 0. 9.
       4    1    4    0  102    0 -5.0900652501E+01  9.8493101140E+00  4.4840249285E+01  6.8562258500E+01  1.5000000000E+00 0. 9.
      -3    1    4    0    0  103  1.3726591649E+02 -2.2203382524E+02  1.9797239130E+02  3.2761909147E+02  5.0000000000E-01 0. 9.
 1000022    1    7    0    0    0 -1.5363274664E+01  1.0304497466E+01 -1.1128187632E+02  1.7133871544E+02  1.2896157000E+02 0. 9.
     -24    2    7    0    0    0 -1.4360568828E+02  1.3922723898E+02 -2.1882516213E+02  3.0718145348E+02  8.0431188000E+01 0. 9.
       3    1   11    0  104    0  8.5085370775E+00  1.4274192455E+00 -2.5449900343E+00  9.0088680297E+00  5.0000000000E-01 0. 9.
      -4    1   11    0    0  104 -1.5211422535E+02  1.3779981973E+02 -2.1628017209E+02  2.9817258545E+02  1.5000000000E+00 0. 9.
</event>
<event>
    20   259  1.000000E+00  9.578494E+02  7.973304E-03  9.318472E-02
       1   -1    0    0  101    0  0.0000000000E+00  0.0000000000E+00  1.0981390910E+03  1.0981390910E+03  0.0000000000E+00 0. 9.
      21   -1    0    0  102  101  0.0000000000E+00  0.0000000000E+00 -8.8348316843E+02  8.8348316843E+02  0.0000000000E+00 0. 9.
 2000001    2    1    2  103    0  1.6548295044E+02 -1.5558944884E+02  3.5246112574E+02  1.0767086034E+03  9.9170554500E+02 0. 9.
 1000021    2    1    2  102  103 -1.6548295044E+02  1.5558944884E+02 -1.3780520313E+02  9.0491365608E+02  8.6503512500E+02 0. 9.
 1000021    2    3    0  103  104  7.9823436438E+01 -5.2699889679E+01  2.4250398037E+02  9.0346168007E+02  8.6503512500E+02 0. 9.
       1    1    3    0  104    0  8.5659514002E+01 -1.0288955916E+02  1.0995714537E+02  1.7324692332E+02  3.3000000000E-01 0. 9.
 1000023    2    4    0    0    0 -2.4766157262E+02 -1.3404538926E+02  1.9715127724E+01  3.8986718710E+02  2.6889276000E+02 0. 9.
       4    1    4    0  102    0 -1.0487474763E+01  1.4573649994E+02 -2.7225446678E+02  3.0898844513E+02  1.5000000000E+00 0. 9.
      -4    1    4    0    0  103  9.2666096942E+01  1.4389833816E+02  1.1473413593E+02  2.0605802386E+02  1.5000000000E+00 0. 9.
 1000023    2    5    0    0    0  5.8851420301E+01 -1.8408408268E+02 -1.8110633824E+02  3.7742980977E+02  2.6889276000E+02 0. 9.
       3    1    5    0  103    0  4.7972797080E+01  1.8336290926E+02  1.3793568724E+02  2.3441384253E+02  5.0000000000E-01 0. 9.
      -3    1    5    0    0  104 -2.7000780944E+01 -5.1978716261E+01  2.8567463137E+02  2.9161802778E+02  5.0000000000E-01 0. 9.
 1000022    1    7    0    0    0 -1.8786040727E+02 -2.3736125970E+01  4.2756469374E+01  2.3305393905E+02  1.2896157000E+02 0. 9.
      23    2    7    0    0    0 -5.9801165346E+01 -1.1030926329E+02 -2.3041341649E+01  1.5681324805E+02  9.1187600000E+01 0. 9.
 1000022    1   10    0    0    0  1.1085651749E+02 -1.2007158798E+02 -1.1236063901E+02  2.3656363509E+02  1.2896157000E+02 0. 9.
      23    2   10    0    0    0 -5.2005097191E+01 -6.4012494699E+01 -6.8745699230E+01  1.4086617468E+02  9.1187600000E+01 0. 9.
      14    1   14    0    0    0  4.4572200550E+00 -1.1826852145E+01  2.6384941085E+01  2.9255877330E+01  0.0000000000E+00 0. 9.
     -14    1   14    0    0    0 -6.4258385401E+01 -9.8482411145E+01 -4.9426282734E+01  1.2755737072E+02  0.0000000000E+00 0. 9.
       5    1   16    0  105    0 -2.4917008106E+01  1.7079893183E+01 -4.0382801360E+01  5.0659556746E+01  4.8000000000E+00 0. 9.
      -5    1   16    0    0  105 -2.7088089085E+01 -8.1092387882E+01 -2.8362897871E+01  9.0206617929E+01  4.8000000000E+00 0. 9.
</event>
<event>
    12   230  1.000000E+00  3.096783E+02  7.871282E-03  1.069108E-01
      -1   -1    0    0    0  101  0.0000000000E+00  0.0000000000E+00  6.7536806800E+02  6.7536806800E+02  0.0000000000E+00 0. 9.
       2   -1    0    0  101    0  0.0000000000E+00  0.0000000000E+00 -1.4303023342E+02  1.4303023342E+02  0.0000000000E+00 0. 9.
 1000023    2    1    2    0    0 -1.1193316218E+02 -1.0502357878E+02  2.3134710205E+02  3.8650198306E+02  2.6889276000E+02 0. 9.
 1000024    2    1    2    0    0  1.1193316218E+02  1.0502357878E+02  3.0099073252E+02  4.3189631836E+02  2.6903535800E+02 0. 9.
 1000022    1    3    0    0    0 -8.5328678539E+01 -6.1419840583E+01  1.6514904180E+02  2.3443266143E+02  1.2896157000E+02 0. 9.
      25    2    3    0    0    0 -2.6604483644E+01 -4.3603738200E+01  6.6198060252E+01  1.5206932163E+02  1.2701893900E+02 0. 9.
 1000022    1    4    0    0    0  5.1027800936E+01 -1.7527778550E+01  1.9908692254E+02  2.4326477088E+02  1.2896157000E+02 0. 9.
      24    2    4    0    0    0  6.0905361247E+01  1.2255135733E+02  1.0190380998E+02  1.8863154748E+02  8.0431188000E+01 0. 9.
     -15    1    6    0    0    0 -6.1387973765E+01 -6.6126211938E+01  2.5081177611E+01  9.3666335616E+01  1.7770000000E+00 0. 9.
      15    1    6    0    0    0  3.4783490121E+01  2.2522473738E+01  4.1116882640E+01  5.8402986014E+01  1.7770000000E+00 0. 9.
      -1    1    8    0    0  102  1.5829651298E+01  1.2811488826E+01  5.9096383855E+01  6.2507628262E+01  3.3000000000E-01 0. 9.
       2    1    8    0  102    0  4.5075709949E+01  1.0973986851E+02  4.2807426127E+01  1.2612391922E+02  3.3000000000E-01 0. 9.
</event>
<event>
    12   230  1.000000E+00  3.135420E+02  7.872388E-03  1.067382E-01
      -1   -1    0    0    0  101  0.0000000000E+00  0.0000000000E+00  2.3951186154E+02  2.3951186154E+02  0.0000000000E+00 0. 9.
       2   -1    0    0  101    0  0.0000000000E+00  0.0000000000E+00 -4.8615853711E+02  4.8615853711E+02  0.0000000000E+00 0. 9.
 1000023    2    1    2    0    0 -5.6075941975E+01 -1.5107092755E+02  1.9876652434E+01  3.1411038523E+02  2.6889276000E+02 0. 9.
 1000024    2    1    2    0    0  5.6075941975E+01  1.5107092755E+02 -2.6652332801E+02  4.1156001342E+02  2.6903535800E+02 0. 9.
 1000022    1    3    0    0    0 -3.1143496266E+00 -9.8467307168E+01 -1.4155364720E+01  1.6290172081E+02  1.2896157000E+02 0. 9.
      25    2    3    0    0    0 -5.2961592348E+01 -5.2603620377E+01  3.4032017154E+01  1.5120866442E+02  1.2701893900E+02 0. 9.
 1000022    1    4    0    0    0  3.0051780155E+01  4.1837332510E+00 -6.2960230877E+01  1.4668227679E+02  1.2896157000E+02 0. 9.
      24    2    4    0    0    0  2.6024161820E+01  1.4688719429E+02 -2.0356309713E+02  2.6487773663E+02  8.0431188000E+01 0. 9.
       5    1    6    0  102    0 -1.2702421816E+01 -6.9879481658E+01 -2.6822039008E+01  7.6072039891E+01  4.8000000000E+00 0. 9.
      -5    1    6    0    0  102 -4.0259170533E+01  1.7275861280E+01  6.0854056161E+01  7.5136624533E+01  4.8000000000E+00 0. 9.
      -3    1    8    0    0  103  1.5724976841E+01  2.5580792515E+01 -2.9060885774E+00  3.0171960380E+01  5.0000000000E-01 0. 9.
       4    1    8    0  103    0  1.0299184979E+01  1.2130640178E+02 -2.0065700855E+02  2.3470577625E+02  1.5000000000E+00 0. 9.
</event>
<event>
    16   258  1.000000E+00  9.535354E+02  7.972891E-03  9.323258E-02
      21   -1    0    0  101  102  0.0000000000E+00  0.0000000000E+00  7.2046385235E+02  7.2046385235E+02  0.0000000000E+00 0. 9.
       1   -1    0    0  102    0  0.0000000000E+00  0.0000000000E+00 -1.3665529623E+03  1.3665529623E+03  0.0000000000E+00 0. 9.
 1000021    2    1    2  101  103  2.0152717326E+02 -1.1759331908E+01 -5.9889883383E+02  1.0713155763E+03  8.6503512500E+02 0. 9.
 1000001    2    1    2  103    0 -2.0152717326E+02  1.1759331908E+01 -4.7190276116E+01  1.0157012383E+03  9.9431916400E+02 0. 9.
 1000022    1    3    0    0    0 -7.1804293246E+01  5.6268734845E+01 -3.2028704206E+02  3.5712309208E+02  1.2896157000E+02 0. 9.
       3    1    3    0  101    0  2.4169890291E+02 -1.3856302042E+02  1.2347877074E+02  3.0473812876E+02  5.0000000000E-01 0. 9.
      -3    1    3    0    0  103  3.1632563596E+01  7.0534953670E+01 -4.0209056251E+02  4.0945435549E+02  5.0000000000E-01 0. 9.
 1000021    2    4    0  103  104 -5.5725990136E+01 -2.7206582471E+00 -2.2555537451E+01  8.6712588919E+02  8.6503512500E+02 0. 9.
       1    1    4    0  104    0 -1.4580118313E+02  1.4479990155E+01 -2.4634738666E+01  1.4857534912E+02  3.3000000000E-01 0. 9.
 1000023    2    8    0    0    0 -2.4326272469E+02  2.4182273863E+02 -1.1802715822E+02  4.5154038203E+02  2.6889276000E+02 0. 9.
       2    1    8    0  103    0  7.8122164963E+00 -1.9521091762E+02  1.1739897824E+02  2.2792753690E+02  3.3000000000E-01 0. 9.
      -2    1    8    0    0  104  1.7972451806E+02 -4.9332479254E+01 -2.1927357467E+01  1.8765797027E+02  3.3000000000E-01 0. 9.
 1000022    1   10    0    0    0 -1.4989127528E+02  1.7063440987E+02 -9.0358690720E+01  2.7636800785E+02  1.2896157000E+02 0. 9.
      25    2   10    0    0    0 -9.3371449409E+01  7.1188328761E+01 -2.7668467503E+01  1.7517237418E+02  1.2701893900E+02 0. 9.
       5    1   14    0  105    0 -6.8125284007E+01  1.0817862659E+02 -2.0502924528E+01  1.2956496242E+02  4.8000000000E+00 0. 9.
      -5    1   14    0    0  105 -2.5246165403E+01 -3.6990297832E+01 -7.1655429748E+00  4.5607411759E+01  4.8000000000E+00 0. 9.
</event>
<event>
    12   230  1.000000E+00  4.774072E+02  7.910080E-03  1.011968E-01
      -2   -1    0    0    0  101  0.0000000000E+00  0.0000000000E+00  2.2251818907E+02  2.2251818907E+02  0.0000000000E+00 0. 9.
       1   -1    0    0  101    0  0.0000000000E+00  0.0000000000E+00 -1.0244950381E+03  1.0244950381E+03  0.0000000000E+00 0. 9.
-1000024    2    1    2    0    0  3.9186698020E+02  4.4902898394E+01 -3.9168610357E+02  6.1755487856E+02  2.6903535800E+02 0. 9.
 1000023    2    1    2    0    0 -3.9186698020E+02 -4.4902898394E+01 -4.1029074548E+02  6.2945834863E+02  2.6889276000E+02 0. 9.
 1000022    1    3    0    0    0  2.2447867886E+02  3.8726560033E+01 -3.3118021766E+02  4.2213960584E+02  1.2896157000E+02 0. 9.
     -24    2    3    0    0    0  1.6738830134E+02  6.1763383602E+00 -6.0505885911E+01  1.9541527272E+02  8.0431188000E+01 0. 9.
 1000022    1    4    0    0    0 -2.2610367447E+02  7.6042048365E+00 -1.9860166821E+02  3.2749718272E+02  1.2896157000E+02 0. 9.
      25    2    4    0    0    0 -1.6576330573E+02 -5.2507103230E+01 -2.1168907727E+02  3.0196116591E+02  1.2701893900E+02 0. 9.
      13    1    6    0    0    0  1.4703993280E+02 -2.6272178088E-02 -7.9272710689E+01  1.6704764695E+02  1.0566000000E-01 0. 9.
     -14    1    6    0    0    0  2.0348368537E+01  6.2026105383E+00  1.8766824778E+01  2.8367625771E+01  0.0000000000E+00 0. 9.
       5    1    8    0  102    0 -6.1073383947E+01 -6.4908210410E+00 -1.6887083716E+02  1.7975674849E+02  4.8000000000E+00 0. 9.
      -5    1    8    0    0  102 -1.0468992179E+02 -4.6016282189E+01 -4.2818240107E+01  1.2220441742E+02  4.8000000000E+00 0. 9.
</event>
<event>
    19   271  1.000000E+00  9.927206E+02  7.976578E-03  9.280738E-02
       2   -1    0    0  101    0  0.0000000000E+00  0.0000000000E+00  1.4627074155E+03  1.4627074155E+03  0.0000000000E+00 0. 9.
       2   -1    0    0  102    0  0.0000000000E+00  0.0000000000E+00 -1.2392878488E+03  1.2392878488E+03  0.0000000000E+00 0. 9.
 1000002    2    1    2  101    0 -4.4117090190E+01 -2.1520988135E+01 -8.0093254444E+02  1.2755340826E+03  9.9150632100E+02 0. 9.
 1000002    2    1    2  102    0  4.4117090190E+01  2.1520988135E+01  1.0243521112E+03  1.4264611817E+03  9.9150632100E+02 0. 9.
 1000023    2    3    0    0    0  2.7375883241E+02 -1.0513245319E+02  1.2643945612E+01  3.9807024101E+02  2.6889276000E+02 0. 9.
       2    1    3    0  101    0 -3.1787592260E+02  8.3611465058E+01 -8.1357649005E+02  8.7746384160E+02  3.3000000000E-01 0. 9.
 1000021    2    4    0  102  103  1.2567382000E+02 -5.1633003255E+00  1.0159386900E+03  1.3402379483E+03  8.6503512500E+02 0. 9.
       2    1    4    0  103    0 -8.1556729806E+01  2.6684288461E+01  8.4134212365E+00  8.6223233436E+01  3.3000000000E-01 0. 9.
 1000022    1    5    0    0    0  1.0204789930E+02 -7.3317939590E+01  6.9528587147E+01  1.9301452014E+02  1.2896157000E+02 0. 9.
      23    2    5    0    0    0  1.7171093311E+02 -3.1814513604E+01 -5.6884641536E+01  2.0505572087E+02  9.1187600000E+01 0. 9.
 1000024    2    7    0    0    0 -1.6794308960E+01 -2.2130045600E+02  2.0280141751E+02  4.0344067648E+02  2.6903535800E+02 0. 9.
      -4    1    7    0    0  103  2.4995817523E+02  2.1777620356E+02  7.2706674057E+02  7.9908313676E+02  1.5000000000E+00 0. 9.
       3    1    7    0  102    0 -1.0749004628E+02 -1.6390478854E+00  8.6070531868E+01  1.3771413502E+02  5.0000000000E-01 0. 9.
       3    1   10    0  104    0  5.3444022177E+01 -3.9905010977E+01 -5.5071695203E+01  8.6497485628E+01  5.0000000000E-01 0. 9.
      -3    1   10    0    0  104  1.1826691093E+02  8.0904973728E+00 -1.8129463328E+00  1.1855823524E+02  5.0000000000E-01 0. 9.
 1000022    1   11    0    0    0 -5.3536634718E+01 -2.1872111134E+02  1.6296787198E+02  3.0642243658E+02  1.2896157000E+02 0. 9.
      24    2   11    0    0    0  3.6742325758E+01 -2.5793446573E+00  3.9833545532E+01  9.7018239902E+01  8.0431188000E+01 0. 9.
      -1    1   17    0    0  105  3.3294437139E+01  2.5693869066E-01 -1.8783993328E+01  3.8229999572E+01  3.3000000000E-01 0. 9.
       2    1   17    0  105    0  3.4478886186E+00 -2.8362833480E+00  5.8617538860E+01  5.8788240330E+01  3.3000000000E-01 0. 9.
</event>
<event>
    23   238  1.000000E+00  6.546640E+02  7.938624E-03  9.739936E-02
      -2   -1    0    0    0  101  0.0000000000E+00  0.0000000000E+00  4.4114778305E+02  4.4114778305E+02  0.0000000000E+00 0. 9.
       2   -1    0    0  102    0  0.0000000000E+00  0.0000000000E+00 -1.2517161133E+03  1.2517161133E+03  0.0000000000E+00 0. 9.
 1000023    2    1    2    0    0 -1.3523865204E+02  9.4169425141E-01 -7.5819761155E+02  8.1575567074E+02  2.6889276000E+02 0. 9.
 1000021    2    1    2  102  101  1.3523865204E+02 -9.4169425141E-01 -5.2370718708E+01  8.7710822562E+02  8.6503512500E+02 0. 9.
 1000022    1    3    0    0    0 -1.0125722498E+02 -2.7639295148E+01 -4.0603765872E+02  4.3876488360E+02  1.2896157000E+02 0. 9.
      25    2    3    0    0    0 -3.3981427061E+01  2.8580989399E+01 -3.5215995283E+02  3.7699078714E+02  1.2701893900E+02 0. 9.
 1000023    2    4    0    0    0  1.2604249797E+02 -4.3153174751E+01 -3.1339637041E+02  4.3390034472E+02  2.6889276000E+02 0. 9.
       6    2    4    0  102    0 -3.7362535838E+00 -9.0793515324E+00  1.5915297589E+02  2.3542366905E+02  1.7320000000E+02 0. 9.
      -6    2    4    0    0  101  1.2932407659E+01  5.1290832032E+01  1.0187267581E+02  2.0778421185E+02  1.7320000000E+02 0. 9.
      21    1    6    0  103  104 -4.9559596774E+01  5.1216959728E+01 -3.3920555436E+02  3.4661179827E+02  0.0000000000E+00 0. 9.
      21    1    6    0  104  103  1.5578169713E+01 -2.2635970329E+01 -1.2954398477E+01  3.0378988861E+01  0.0000000000E+00 0. 9.
 1000022    1    7    0    0    0 -1.1030218297E+01 -3.3223481186E+01 -1.1870177969E+02  1.7873629866E+02  1.2896157000E+02 0. 9.
      23    2    7    0    0    0  1.3707271626E+02 -9.9296935645E+00 -1.9469459071E+02  2.5516404606E+02  9.1187600000E+01 0. 9.
      24    2    8    0    0    0  6.1291185248E+01  1.2115119700E+01  1.1621062489E+02  1.5452336670E+02  8.0431188000E+01 0. 9.
       5    1    8    0  102    0 -6.5027438832E+01 -2.1194471232E+01  4.2942350995E+01  8.0900302353E+01  4.8000000000E+00 0. 9.
     -24    2    9    0    0    0 -4.2226705111E+01  6.6196720612E+01  9.9948985505E+01  1.5041301856E+02  8.0431188000E+01 0. 9.
      -5    1    9    0    0  101  5.5159112770E+01 -1.4905888580E+01  1.9236903051E+00  5.7371193297E+01  4.8000000000E+00 0. 9.
       1    1   13    0  105    0  5.0631161472E+01 -2.0239479105E+01 -1.4502302792E+02  1.5493527214E+02  3.3000000000E-01 0. 9.
      -1    1   13    0    0  105  8.6441554789E+01  1.0309785540E+01 -4.9671562796E+01  1.0022877393E+02  3.3000000000E-01 0. 9.
      -1    1   14    0    0  106  7.6712679391E+01  2.1111611059E+01  1.0970015569E+02  1.3551667189E+02  3.3000000000E-01 0. 9.
       2    1   14    0  106    0 -1.5421494143E+01 -8.9964913595E+00  6.5104692035E+00  1.9006694811E+01  3.3000000000E-01 0. 9.
       1    1   16    0  107    0 -4.5980292333E+01 -1.6918716346E-02  4.3788509715E+01  6.3495905792E+01  3.3000000000E-01 0. 9.
      -4    1   16    0    0  107  3.7535872218E+00  6.6213639329E+01  5.6160475790E+01  8.6917112763E+01  1.5000000000E+00 0. 9.
</event>
<event>
    12   230  1.000000E+00  2.851500E+02  7.863928E-03  1.080742E-01
      -1   -1    0    0    0  101  0.0000000000E+00  0.0000000000E+00  2.9019597046E+02  2.9019597046E+02  0.0000000000E+00 0. 9.
       2   -1    0    0  101    0  0.0000000000E+00  0.0000000000E+00 -3.4028533665E+02  3.4028533665E+02  0.0000000000E+00 0. 9.
 1000023    2    1    2    0    0  3.3372514389E+01  8.8629317331E+01 -1.5751492936E+02  3.2570408342E+02  2.6889276000E+02 0. 9.
 1000024    2    1    2    0    0 -3.3372514389E+01 -8.8629317331E+01  1.0742556317E+02  3.0477722370E+02  2.6903535800E+02 0. 9.
 1000022    1    3    0    0    0 -1.9064187405E+01  5.2709882610E+01 -5.7139066456E+01  1.5178186459E+02  1.2896157000E+02 0. 9.
      25    2    3    0    0    0  5.2436701793E+01  3.5919434721E+01 -1.0037586290E+02  1.7392221883E+02  1.2701893900E+02 0. 9.
 1000022    1    4    0    0    0 -3.0739838488E-01 -2.5417474797E+01 -2.5420833534E+01  1.3387848159E+02  1.2896157000E+02 0. 9.
      24    2    4    0    0    0 -3.3065116004E+01 -6.3211842535E+01  1.3284639670E+02  1.7089874210E+02  8.0431188000E+01 0. 9.
       5    1    6    0  102    0 -2.1482519144E+01  4.7148416151E+01 -8.1442563687E+01  9.6645760146E+01  4.8000000000E+00 0. 9.
      -5    1    6    0    0  102  7.3919220937E+01 -1.1228981430E+01 -1.8933299214E+01  7.7276458686E+01  4.8000000000E+00 0. 9.
     -11    1    8    0    0    0 -1.9875079337E+01 -7.1049007177E+01  1.3646855007E+02  1.5513428170E+02  5.1000000000E-04 0. 9.
      12    1    8    0    0    0 -1.3190036667E+01  7.8371646428E+00 -3.6221533668E+00  1.5764460407E+01  0.0000000000E+00 0. 9.
</event>
<event>
    13   259  1.000000E+00  9.948511E+02  7.976774E-03  9.278485E-02
      21   -1    0    0  101  102  0.0000000000E+00  0.0000000000E+00  7.5608950584E+02  7.5608950584E+02  0.0000000000E+00 0. 9.
       2   -1    0    0  102    0  0.0000000000E+00  0.0000000000E+00 -1.8671204616E+03  1.8671204616E+03  0.0000000000E+00 0. 9.
 1000021    2    1    2  101  103  3.4527747887E+02 -7.0939473930E+01  1.8670180162E+02  9.5257140235E+02  8.6503512500E+02 0. 9.
 2000002    2    1    2  103    0 -3.4527747887E+02  7.0939473930E+01 -1.2977327574E+03  1.6706385651E+03  9.9129912700E+02 0. 9.
-1000024    2    3    0    0    0  2.9091809006E+02  2.5424613372E+02  1.0469384476E+02  4.8230203879E+02  2.6903535800E+02 0. 9.
       4    1    3    0  101    0  1.8751022294E+02 -2.3702346790E+02  3.7897547431E+01  3.0459593257E+02  1.5000000000E+00 0. 9.
      -3    1    3    0    0  103 -1.3315083413E+02 -8.8162139750E+01  4.4110409422E+01  1.6567343099E+02  5.0000000000E-01 0. 9.
 1000022    1    4    0    0    0 -2.6765906657E+02  3.7087917447E+02 -1.7575352314E+02  5.0666865445E+02  1.2896157000E+02 0. 9.
       2    1    4    0  103    0 -7.7618412295E+01 -2.9993970054E+02 -1.1219792342E+03  1.1639699106E+03  3.3000000000E-01 0. 9.
 1000022    1    5    0    0    0  6.3670670813E+01  6.2579883803E+01  7.2050619728E+01  1.7260525635E+02  1.2896157000E+02 0. 9.
     -24    2    5    0    0    0  2.2724741925E+02  1.9166624992E+02  3.2643225037E+01  3.0969678244E+02  8.0431188000E+01 0. 9.
       3    1   11    0  104    0  9.5538583646E+00  1.7622805443E+01  2.3412300328E+01  3.0825724452E+01  5.0000000000E-01 0. 9.
      -4    1   11    0    0  104  2.1769356089E+02  1.7404344447E+02  9.2309247086E+00  2.7887105799E+02  1.5000000000E+00 0. 9.
</event>
<event>
    12   226  1.000000E+00  2.919147E+02  7.866016E-03  1.077411E-01
      -1   -1    0    0    0  101  0.0000000000E+00  0.0000000000E+00  4.4783593293E+01  4.4783593293E+01  0.0000000000E+00 0. 9.
       1   -1    0    0  101    0  0.0000000000E+00  0.0000000000E+00 -2.3640132296E+03  2.3640132296E+03  0.0000000000E+00 0. 9.
 1000024    2    1    2    0    0 -4.3091524667E+01  1.0477248578E+02 -6.2763327440E+02  6.9219773495E+02  2.6903535800E+02 0. 9.
-1000024    2    1    2    0    0  4.3091524667E+01 -1.0477248578E+02 -1.6915963619E+03  1.7165990879E+03  2.6903535800E+02 0. 9.
 1000022    1    3    0    0    0  1.3062539603E+01 -4.9921266964E+00 -4.0525253105E+02  4.2550705250E+02  1.2896157000E+02 0. 9.
      24    2    3    0    0    0 -5.6154064270E+01  1.0976461248E+02 -2.2238074335E+02  2.6669068245E+02  8.0431188000E+01 0. 9.
 1000022    1    4    0    0    0  4.2640633481E+01 -8.3010791809E+01 -1.4897453571E+03  1.4982260613E+03  1.2896157000E+02 0. 9.
     -24    2    4    0    0    0  4.5089118601E-01 -2.1761693970E+01 -2.0185100475E+02  2.1837302661E+02  8.0431188000E+01 0. 9.
     -11    1    6    0    0    0 -9.4629112741E+00 -1.2875173508E+01 -2.3535241260E+01  2.8446869143E+01  5.1000000000E-04 0. 9.
      12    1    6    0    0    0 -4.6691152995E+01  1.2263978598E+02 -1.9884550209E+02  2.3824381330E+02  0.0000000000E+00 0. 9.
       3    1    8    0  102    0  2.2028375378E+01 -2.8567707609E+01 -1.8878786281E+02  1.9220424133E+02  5.0000000000E-01 0. 9.
      -4    1    8    0    0  102 -2.1577484192E+01  6.8060136390E+00 -1.3063141944E+01  2.6168785283E+01  1.5000000000E+00 0. 9.
</event>
<event>
    12   230  1.000000E+00  3.395749E+02  7.879511E-03  1.056408E-01
      -4   -1    0    0    0  101  0.0000000000E+00  0.0000000000E+00  8.7742266814E+02  8.7742266814E+02  0.0000000000E+00 0. 9.
       3   -1    0    0  101    0  0.0000000000E+00  0.0000000000E+00 -1.6287461610E+02  1.6287461610E+02  0.0000000000E+00 0. 9.
-1000024    2    1    2    0    0 -1.3954772539E+02 -1.5328374547E+02  1.2874053227E+02  3.6321291661E+02  2.6903535800E+02 0. 9.
 1000023    2    1    2    0    0  1.3954772539E+02  1.5328374547E+02  5.8580751977E+02  6.7708436763E+02  2.6889276000E+02 0. 9.
 1000022    1    3    0    0    0 -1.1917668996E+02 -3.5072200502E+01  1.2565919556E+02  2.1875662880E+02  1.2896157000E+02 0. 9.
     -24    2    3    0    0    0 -2.0371035433E+01 -1.1821154497E+02  3.0813367058E+00  1.4445628781E+02  8.0431188000E+01 0. 9.
 1000022    1    4    0    0    0  7.1084629001E+01  1.2328594608E+02  3.3905314524E+02  3.8966725653E+02  1.2896157000E+02 0. 9.
      25    2    4    0    0    0  6.8463096390E+01  2.9997799393E+01  2.4675437453E+02  2.8741711110E+02  1.2701893900E+02 0. 9.
       3    1    6    0  102    0  7.0919289955E-01  9.6833005132E+00 -1.0269420075E+01  1.4141437412E+01  5.0000000000E-01 0. 9.
      -4    1    6    0    0  102 -2.1080228332E+01 -1.2789484548E+02  1.3350756781E+01  1.3031485040E+02  1.5000000000E+00 0. 9.
      21    1    8    0  103  104  6.7926586469E+01  3.0475826106E+01  2.6188883376E+02  2.7226560263E+02  0.0000000000E+00 0. 9.
      21    1    8    0  104  103  5.3650992176E-01 -4.7802671340E-01 -1.5134459233E+01  1.5151508464E+01  0.0000000000E+00 0. 9.
</event>
<event>
    12   226  1.000000E+00  3.143939E+02  7.872630E-03  1.067005E-01
      -2   -1    0    0    0  101  0.0000000000E+00  0.0000000000E+00  1.0774530295E+02  1.0774530295E+02  0.0000000000E+00 0. 9.
       2   -1    0    0  101    0  0.0000000000E+00  0.0000000000E+00 -1.2540448418E+03  1.2540448418E+03  0.0000000000E+00 0. 9.
-1000024    2    1    2    0    0  5.7212867067E+01 -1.5228328280E+02 -9.2594414555E+02  9.7786302462E+02  2.6903535800E+02 0. 9.
 1000024    2    1    2    0    0 -5.7212867067E+01  1.5228328280E+02 -2.2035539334E+02  3.8392712017E+02  2.6903535800E+02 0. 9.
 1000022    1    3    0    0    0 -2.3060384797E+01 -1.4669470193E+01 -3.1734326953E+02  3.4363470715E+02  1.2896157000E+02 0. 9.
     -24    2    3    0    0    0  8.0273251864E+01 -1.3761381261E+02 -6.0860087602E+02  6.3422831746E+02  8.0431188000E+01 0. 9.
 1000022    1    4    0    0    0 -9.4645010028E+01  6.2331878600E+01 -6.4734813726E+01  1.8347921860E+02  1.2896157000E+02 0. 9.
      24    2    4    0    0    0  3.7432142961E+01  8.9951404198E+01 -1.5562057961E+02  2.0044790157E+02  8.0431188000E+01 0. 9.
       1    1    6    0  102    0  1.1815118971E+01 -3.0214963634E+01 -2.7893132487E+02  2.8081191918E+02  3.3000000000E-01 0. 9.
      -2    1    6    0    0  102  6.8458132893E+01 -1.0739884897E+02 -3.2966955115E+02  3.5341639828E+02  3.3000000000E-01 0. 9.
      -1    1    8    0    0  103  1.2222709886E+01  9.8848702899E+01 -1.2310766644E+02  1.5835424572E+02  3.3000000000E-01 0. 9.
       2    1    8    0  103    0  2.5209433075E+01 -8.8972987008E+00 -3.2512913168E+01  4.2093655850E+01  3.3000000000E-01 0. 9.
</event>
<event>
     8   272  1.000000E+00  9.952674E+02  7.976813E-03  9.278046E-02
       1   -1    0    0  101    0  0.0000000000E+00  0.0000000000E+00  7.7818219725E+02  7.7818219725E+02  0.0000000000E+00 0. 9.
       2   -1    0    0  102    0  0.0000000000E+00  0.0000000000E+00 -1.3433753760E+03  1.3433753760E+03  0.0000000000E+00 0. 9.
 2000001    2    1    2  102    0 -3.5961491200E+01  7.8657642642E+01 -3.9705409302E+01  9.9626134177E+02  9.9170554500E+02 0. 9.
 2000002    2    1    2  101    0  3.5961491200E+01 -7.8657642642E+01 -5.2548776950E+02  1.1252962315E+03  9.9129912700E+02 0. 9.
 1000022    1    3    0    0    0 -4.9167864532E+01  7.2546551888E+01 -5.0613351635E+02  5.2960617822E+02  1.2896157000E+02 0. 9.
       1    1    3    0  102    0  1.3206373332E+01  6.1110907545E+00  4.6642810705E+02  4.6665516355E+02  3.3000000000E-01 0. 9.
 1000022    1    4    0    0    0  5.5666572373E+01 -3.8058319547E+02  1.1096918269E+02  4.2058005421E+02  1.2896157000E+02 0. 9.
       2    1    4    0  101    0 -1.9705081173E+01  3.0192555283E+02 -6.3645695219E+02  7.0471617731E+02  3.3000000000E-01 0. 9.
</event>
<event>
    12   230  1.000000E+00  2.908909E+02  7.865703E-03  1.077909E-01
       2   -1    0    0  101    0  0.0000000000E+00  0.0000000000E+00  1.2411892098E+03  1.2411892098E+03  0.0000000000E+00 0. 9.
      -1   -1    0    0    0  101  0.0000000000E+00  0.0000000000E+00 -6.8238814083E+01  6.8238814083E+01  0.0000000000E+00 0. 9.
 1000024    2    1    2    0    0 -9.5968283916E+01 -5.5370625555E+01  5.6651205224E+02  6.3686085362E+02  2.6903535800E+02 0. 9.
 1000023    2    1    2    0    0  9.5968283916E+01  5.5370625555E+01  6.0643834350E+02  6.7256717028E+02  2.6889276000E+02 0. 9.
 1000022    1    3    0    0    0 -3.6203737804E+01  2.6738066588E+01  4.1817690376E+02  4.3991890640E+02  1.2896157000E+02 0. 9.
      24    2    3    0    0    0 -5.9764546112E+01 -8.2108692144E+01  1.4833514848E+02  1.9694194722E+02  8.0431188000E+01 0. 9.
 1000022    1    4    0    0    0  8.5242400605E+01  4.6286129442E+01  3.7368676602E+02  4.0703999591E+02  1.2896157000E+02 0. 9.
      25    2    4    0    0    0  1.0725883311E+01  9.0844961131E+00  2.3275157749E+02  2.6552717437E+02  1.2701893900E+02 0. 9.
      -3    1    6    0    0  102 -1.9875600551E+01  9.2400065610E+00  5.9512984586E+01  6.3422886665E+01  5.0000000000E-01 0. 9.
       4    1    6    0  102    0 -3.9888945560E+01 -9.1348698705E+01  8.8822163891E+01  1.3351906055E+02  1.5000000000E+00 0. 9.
       5    1    8    0  103    0  4.9339877619E+01  4.8697991403E+01  1.5617231122E+02  1.7093492528E+02  4.8000000000E+00 0. 9.
      -5    1    8    0    0  103 -3.8613994308E+01 -3.9613495290E+01  7.6579266267E+01  9.4592249088E+01  4.8000000000E+00 0. 9.
</event>
<event>
    12   226  1.000000E+00  2.798577E+02  7.862261E-03  1.083419E-01
      -2   -1    0    0    0  101  0.0000000000E+00  0.0000000000E+00  1.0851852940E+02  1.0851852940E+02  0.0000000000E+00 0. 9.
       2   -1    0    0  101    0  0.0000000000E+00  0.0000000000E+00 -8.4122421778E+02  8.4122421778E+02  0.0000000000E+00 0. 9.
-1000024    2    1    2    0    0  5.6079159953E+01  5.2871654419E+01 -1.8737204150E+02  3.3679161185E+02  2.6903535800E+02 0. 9.
 1000024    2    1    2    0    0 -5.6079159953E+01 -5.2871654419E+01 -5.4533364689E+02  6.1295113533E+02  2.6903535800E+02 0. 9.
 1000022    1    3    0    0    0  4.8591179776E+01 -4.7987425153E+01 -6.8476289176E+01  1.6119548518E+02  1.2896157000E+02 0. 9.
     -24    2    3    0    0    0  7.4879801777E+00  1.0085907957E+02 -1.1889575232E+02  1.7559612667E+02  8.0431188000E+01 0. 9.
 1000022    1    4    0    0    0 -4.0485916930E+01 -7.0949086857E+01 -1.7055010069E+02  2.2889147162E+02  1.2896157000E+02 0. 9.
      24    2    4    0    0    0 -1.5593243023E+01  1.8077432438E+01 -3.7478354619E+02  3.8405966371E+02  8.0431188000E+01 0. 9.
       3    1    6    0  102    0 -2.1156467936E+01  6.3118869947E+01 -1.0813886264E+02  1.2698760370E+02  5.0000000000E-01 0. 9.
      -4    1    6    0    0  102  2.8644448114E+01  3.7740209625E+01 -1.0756889678E+01  4.8608522975E+01  1.5000000000E+00 0. 9.
     -15    1    8    0    0    0 -6.8113520027E+00  4.6864030339E+01 -2.9511837645E+02  2.9889905604E+02  1.7770000000E+00 0. 9.
      16    1    8    0    0    0 -8.7818910203E+00 -2.8786597902E+01 -7.9665169743E+01  8.5160607671E+01  0.0000000000E+00 0. 9.
</event>
<event>
    12   226  1.000000E+00  3.056020E+02  7.870100E-03  1.070959E-01
      -2   -1    0    0    0  101  0.0000000000E+00  0.0000000000E+00  7.7684552718E+01  7.7684552718E+01  0.0000000000E+00 0. 9.
       2   -1    0    0  101    0  0.0000000000E+00  0.0000000000E+00 -1.2396001541E+03  1.2396001541E+03  0.0000000000E+00 0. 9.
-1000024    2    1    2    0    0 -1.3899583659E+02  4.1142780049E+01 -6.9535850122E+02  7.5954989304E+02  2.6903535800E+02 0. 9.
 1000024    2    1    2    0    0  1.3899583659E+02 -4.1142780049E+01 -4.6655710018E+02  5.5773481380E+02  2.6903535800E+02 0. 9.
 1000022    1    3    0    0    0 -9.8635231751E+01  1.0661183423E+02 -4.5064087284E+02  4.9071710277E+02  1.2896157000E+02 0. 9.
     -24    2    3    0    0    0 -4.0360604841E+01 -6.5469054186E+01 -2.4471762838E+02  2.6883279026E+02  8.0431188000E+01 0. 9.
 1000022    1    4    0    0    0  7.2661636178E+01 -1.9303334427E+01 -1.0951060824E+02  1.8513776477E+02  1.2896157000E+02 0. 9.
      24    2    4    0    0    0  6.6334200414E+01 -2.1839445622E+01 -3.5704649194E+02  3.7259704903E+02  8.0431188000E+01 0. 9.
      11    1    6    0    0    0 -4.5034970107E+01 -7.4413391274E+01 -2.4361938693E+02  2.5868109135E+02  5.1000000000E-04 0. 9.
     -12    1    6    0    0    0  4.6743652653E+00  8.9443370873E+00 -1.0982414473E+00  1.0151698914E+01  0.0000000000E+00 0. 9.
      -3    1    8    0    0  102  9.0237100166E+00 -3.6025727520E+00 -2.4690126489E+02  2.4709287824E+02  5.0000000000E-01 0. 9.
       4    1    8    0  102    0  5.7310490397E+01 -1.8236872870E+01 -1.1014522706E+02  1.2550417079E+02  1.5000000000E+00 0. 9.
</event>
<event>
    12   226  1.000000E+00  2.860794E+02  7.864218E-03  1.080279E-01
       2   -1    0    0  101    0  0.0000000000E+00  0.0000000000E+00  1.9564473440E+03  1.9564473440E+03  0.0000000000E+00 0. 9.
      -2   -1    0    0    0  101  0.0000000000E+00  0.0000000000E+00 -4.2402567886E+01  4.2402567886E+01  0.0000000000E+00 0. 9.
 1000024    2    1    2    0    0 -1.9116491589E+00 -9.7250993599E+01  1.0729904276E+03  1.1104728235E+03  2.6903535800E+02 0. 9.
-1000024    2    1    2    0    0  1.9116491589E+00  9.7250993599E+01  8.4105434855E+02  8.8837708842E+02  2.6903535800E+02 0. 9.
 1000022    1    3    0    0    0 -3.2766681642E+01 -2.2930987878E+01  8.4447025553E+02  8.5519622581E+02  1.2896157000E+02 0. 9.
      24    2    3    0    0    0  3.0855032483E+01 -7.4320005722E+01  2.2852017202E+02  2.5527659764E+02  8.0431188000E+01 0. 9.
 1000022    1    4    0    0    0  5.3254463262E+01  1.1092118706E+02  6.5518917826E+02  6.7900183611E+02  1.2896157000E+02 0. 9.
     -24    2    4    0    0    0 -5.1342814103E+01 -1.3670193459E+01  1.8586517029E+02  2.0937525231E+02  8.0431188000E+01 0. 9.
      -1    1    6    0    0  102 -7.8471489666E+00 -2.7158279711E+01  1.6423072996E+02  1.6664630649E+02  3.3000000000E-01 0. 9.
       2    1    6    0  102    0  3.8702181450E+01 -4.7161726011E+01  6.4289442067E+01  8.8630291157E+01  3.3000000000E-01 0. 9.
      11    1    8    0    0    0 -5.6771905639E+00 -9.6505310863E-01 -7.9677111768E+00  9.8308820489E+00  5.1000000000E-04 0. 9.
     -12    1    8    0    0    0 -4.5665623539E+01 -1.2705140350E+01  1.9383288147E+02  1.9954437026E+02  0.0000000000E+00 0. 9.
</event>
<event>
    11   237  1.000000E+00  9.059220E+02  7.968206E-03  9.377905E-02
       2   -1    0    0  101    0  0.0000000000E+00  0.0000000000E+00  1.0119294381E+03  1.0119294381E+03  0.0000000000E+00 0. 9.
      -2   -1    0    0    0  102  0.0000000000E+00  0.0000000000E+00 -7.8073428565E+02  7.8073428565E+02  0.0000000000E+00 0. 9.
 1000022    1    1    2    0    0  1.7652761608E+02  6.3802365951E+02  1.9792081348E+02  7.0287973671E+02  1.2896157000E+02 0. 9.
 1000021    2    1    2  101  102 -1.7652761608E+02 -6.3802365951E+02  3.3274338985E+01  1.0897839871E+03  8.6503512500E+02 0. 9.
 1000024    2    4    0    0    0  6.4536711755E+01 -4.3731336748E+02 -1.8856307011E+02  5.5076675990E+02  2.6903535800E+02 0. 9.
      -4    1    4    0    0  102 -2.1796911330E+02 -2.2384864536E+02 -2.3557310198E+00  3.1245247615E+02  1.5000000000E+00 0. 9.
       3    1    4    0  101    0 -2.3095214532E+01  2.3138353335E+01  2.2419314011E+02  2.2656475101E+02  5.0000000000E-01 0. 9.
 1000022    1    5    0    0    0  1.2045109544E+02 -2.4972772429E+02 -1.0677159294E+02  3.2388834846E+02  1.2896157000E+02 0. 9.
      24    2    5    0    0    0 -5.5914383687E+01 -1.8758564320E+02 -8.1791477170E+01  2.2687841144E+02  8.0431188000E+01 0. 9.
      -1    1    9    0    0  103 -7.1745734436E+01 -1.1692012651E+02 -6.8199093439E+01  1.5319592566E+02  3.3000000000E-01 0. 9.
       2    1    9    0  103    0  1.5831350749E+01 -7.0665516690E+01 -1.3592383731E+01  7.3682485782E+01  3.3000000000E-01 0. 9.
</event>
<event>
    12   230  1.000000E+00  3.279456E+02  7.876397E-03  1.061174E-01
      -1   -1    0    0    0  101  0.0000000000E+00  0.0000000000E+00  6.8742073073E+02  6.8742073073E+02  0.0000000000E+00 0. 9.
       2   -1    0    0  101    0  0.0000000000E+00  0.0000000000E+00 -1.6211929877E+02  1.6211929877E+02  0.0000000000E+00 0. 9.
 1000023    2    1    2    0    0  1.8708065133E+02  1.4403028908E+01  3.4202519680E+02  4.7380499044E+02  2.6889276000E+02 0. 9.
 1000024    2    1    2    0    0 -1.8708065133E+02 -1.4403028908E+01  1.8327623516E+02  3.7573503905E+02  2.6903535800E+02 0. 9.
 1000022    1    3    0    0    0  1.2799418251E+02 -1.7988751627E+01  2.1375652043E+02  2.8112104600E+02  1.2896157000E+02 0. 9.
      25    2    3    0    0    0  5.9086468820E+01  3.2391780535E+01  1.2826867637E+02  1.9268394444E+02  1.2701893900E+02 0. 9.
 1000022    1    4    0    0    0 -1.7259056654E+02 -1.3241424922E+00  5.3806171444E+01  2.2207081671E+02  1.2896157000E+02 0. 9.
      24    2    4    0    0    0 -1.4490084793E+01 -1.3078886416E+01  1.2947006372E+02  1.5366422234E+02  8.0431188000E+01 0. 9.
       5    1    6    0  102    0  8.5198375559E+01  2.8483752740E+01  3.6521126693E+01  9.7092327518E+01  4.8000000000E+00 0. 9.
      -5    1    6    0    0  102 -2.6111906739E+01  3.9080277959E+00  9.1747549675E+01  9.5591616924E+01  4.8000000000E+00 0. 9.
      -1    1    8    0    0  103 -1.2265061383E+01  1.7436049114E+01  7.2446874629E-01  2.1332634492E+01  3.3000000000E-01 0. 9.
       2    1    8    0  103    0 -2.2250234097E+00 -3.0514935530E+01  1.2874559497E+02  1.3233158785E+02  3.3000000000E-01 0. 9.
</event>
<event>
    16   271  1.000000E+00  1.014713E+03  7.978586E-03  9.257766E-02
       2   -1    0    0  101    0  0.0000000000E+00  0.0000000000E+00  1.3607223554E+03  1.3607223554E+03  0.0000000000E+00 0. 9.
       2   -1    0    0  102    0  0.0000000000E+00  0.0000000000E+00 -1.2806495094E+03  1.2806495094E+03  0.0000000000E+00 0. 9.
 1000002    2    1    2  102    0 -1.6150010265E+02  1.4309371719E+02  8.8479754252E+02  1.3462947563E+03  9.9150632100E+02 0. 9.
 1000002    2    1    2  101    0  1.6150010265E+02 -1.4309371719E+02 -8.0472469650E+02  1.2950771084E+03  9.9150632100E+02 0. 9.
 1000024    2    3    0    0    0 -6.7055675316E+01  4.8805844733E+02  8.0243365409E+02  9.7927386602E+02  2.6903535800E+02 0. 9.
       1    1    3    0  102    0 -9.4444427331E+01 -3.4496473014E+02  8.2363888431E+01  3.6702089029E+02  3.3000000000E-01 0. 9.
 1000024    2    4    0    0    0  9.7718483425E+01  3.7839846381E+02 -4.9279029520E+02  6.8407353283E+02  2.6903535800E+02 0. 9.
       1    1    4    0  101    0  6.3781619222E+01 -5.2149218100E+02 -3.1193440130E+02  6.1100357561E+02  3.3000000000E-01 0. 9.
 1000022    1    5    0    0    0 -5.1535806769E+01  4.2316370930E+02  7.1803932418E+02  8.4494675682E+02  1.2896157000E+02 0. 9.
      24    2    5    0    0    0 -1.5519868547E+01  6.4894738029E+01  8.4394329914E+01  1.3432710921E+02  8.0431188000E+01 0. 9.
 1000022    1    7    0    0    0 -2.1240660110E+01  1.6773886081E+02 -1.6698802348E+02  2.7037673271E+02  1.2896157000E+02 0. 9.
      24    2    7    0    0    0  1.1895914353E+02  2.1065960300E+02 -3.2580227172E+02  4.1369680012E+02  8.0431188000E+01 0. 9.
     -11    1   10    0    0    0  2.0072440024E+01  3.0292149807E+01 -8.9466631526E-02  3.6339031261E+01  5.1000000000E-04 0. 9.
      12    1   10    0    0    0 -3.5592308571E+01  3.4602588222E+01  8.4483796545E+01  9.7988077947E+01  0.0000000000E+00 0. 9.
      -1    1   12    0    0  103  1.1385895287E+02  1.7770535642E+02 -2.2953215648E+02  3.1181432714E+02  3.3000000000E-01 0. 9.
       2    1   12    0  103    0  5.1001906672E+00  3.2954246574E+01 -9.6270115239E+01  1.0188247298E+02  3.3000000000E-01 0. 9.
</event>
<event>
    12   230  1.000000E+00  2.723187E+02  7.859831E-03  1.087344E-01
       2   -1    0    0  101    0  0.0000000000E+00  0.0000000000E+00  1.8869099499E+02  1.8869099499E+02  0.0000000000E+00 0. 9.
      -1   -1    0    0    0  101  0.0000000000E+00  0.0000000000E+00 -4.7760705151E+02  4.7760705151E+02  0.0000000000E+00 0. 9.
 1000024    2    1    2    0    0 -2.0055931081E+01  3.7597450698E+01 -4.2783031883E+00  2.7242271639E+02  2.6903535800E+02 0. 9.
 1000023    2    1    2    0    0  2.0055931081E+01 -3.7597450698E+01 -2.8463775333E+02  3.9387533011E+02  2.6889276000E+02 0. 9.
 1000022    1    3    0    0    0 -7.1368156099E+01  3.5115183401E+01  5.3702838348E+01  1.6075313743E+02  1.2896157000E+02 0. 9.
      24    2    3    0    0    0  5.1312225017E+01  2.4822672972E+00 -5.7981141536E+01  1.1166957896E+02  8.0431188000E+01 0. 9.
 1000022    1    4    0    0    0 -2.0971959219E+00 -4.3614905647E+01 -1.0150976210E+02  1.6982925709E+02  1.2896157000E+02 0. 9.
      25    2    4    0    0    0  2.2153127003E+01  6.0174549492E+00 -1.8312799123E+02  2.2404607302E+02  1.2701893900E+02 0. 9.
      -3    1    6    0    0  102  4.1320425509E+01  3.8858011192E+01 -2.6950204362E+01  6.2800367142E+01  5.0000000000E-01 0. 9.
       4    1    6    0  102    0  9.9917995082E+00 -3.6375743895E+01 -3.1030937174E+01  4.8869211813E+01  1.5000000000E+00 0. 9.
       5    1    8    0  103    0 -2.9483168268E+01  1.1429346839E+01 -1.6616584116E+02  1.6921587971E+02  4.8000000000E+00 0. 9.
      -5    1    8    0    0  103  5.1636295272E+01 -5.4118918895E+00 -1.6962150076E+01  5.4830193310E+01  4.8000000000E+00 0. 9.
</event>
<event>
    22   244  1.000000E+00  9.423832E+02  7.971814E-03  9.335752E-02
      21   -1    0    0  101  102  0.0000000000E+00  0.0000000000E+00  9.5670903694E+02  9.5670903694E+02  0.0000000000E+00 0. 9.
      21   -1    0    0  103  104  0.0000000000E+00  0.0000000000E+00 -9.3171723695E+02  9.3171723695E+02  0.0000000000E+00 0. 9.
 1000021    2    1    2  103  102 -2.8268172750E+02  2.4472731882E+02  6.9912715795E+01  9.4497300224E+02  8.6503512500E+02 0. 9.
 1000021    2    1    2  101  104  2.8268172750E+02 -2.4472731882E+02 -4.4920915802E+01  9.4345327166E+02  8.6503512500E+02 0. 9.
 1000024    2    3    0    0    0 -2.0685422003E+02  1.1385474058E+02  3.9489005069E+02  5.3298193805E+02  2.6903535800E+02 0. 9.
      -6    2    3    0    0  102 -8.6032051087E+01  1.0548015793E+02 -3.1037727217E+02  3.8060460929E+02  1.7320000000E+02 0. 9.
       5    1    3    0  103    0  1.0204543619E+01  2.5392420309E+01 -1.4600062721E+01  3.1386454898E+01  4.8000000000E+00 0. 9.
-1000024    2    4    0    0    0  5.7379936304E+01  1.2977932560E-01 -3.5918233934E+02  4.5242065678E+02  2.6903535800E+02 0. 9.
       4    1    4    0  101    0  6.2170905816E+01 -8.6188683963E+01  4.1268414428E+00  1.0636254789E+02  1.5000000000E+00 0. 9.
      -3    1    4    0    0  104  1.6313088538E+02 -1.5866841419E+02  3.1013458210E+02  3.8467006699E+02  5.0000000000E-01 0. 9.
 1000022    1    5    0    0    0 -9.8105117563E+01  1.4099875009E+02  1.9499361125E+02  2.9010145912E+02  1.2896157000E+02 0. 9.
      24    2    5    0    0    0 -1.0874910247E+02 -2.7144009508E+01  1.9989643944E+02  2.4288047893E+02  8.0431188000E+01 0. 9.
     -24    2    6    0    0    0  1.8500285690E+01  2.1440665846E+01 -1.0500376413E+02  1.3526614213E+02  8.0431188000E+01 0. 9.
      -5    1    6    0    0  102 -1.0453233678E+02  8.4039492084E+01 -2.0537350804E+02  2.4533846716E+02  4.8000000000E+00 0. 9.
 1000022    1    8    0    0    0  9.9648036962E+01 -5.1022143248E+01 -2.2679916980E+02  2.8390480857E+02  1.2896157000E+02 0. 9.
     -24    2    8    0    0    0 -4.2268100658E+01  5.1151922574E+01 -1.3238316954E+02  1.6851584821E+02  8.0431188000E+01 0. 9.
      -3    1   12    0    0  105 -1.3215262595E+01 -3.7358969270E+01  3.9834301811E+01  5.6190367067E+01  5.0000000000E-01 0. 9.
       4    1   12    0  105    0 -9.5533839872E+01  1.0214959762E+01  1.6006213763E+02  1.8669011186E+02  1.5000000000E+00 0. 9.
       1    1   13    0  106    0 -1.9901304120E+01 -1.7648100207E+01 -1.6912811513E+01  3.1522522739E+01  3.3000000000E-01 0. 9.
      -2    1   13    0    0  106  3.8401589810E+01  3.9088766053E+01 -8.8090952619E+01  1.0374361939E+02  3.3000000000E-01 0. 9.
      13    1   16    0    0    0 -5.9408423659E+01  5.9037476712E+01 -9.5048932535E+01  1.2668502358E+02  1.0566000000E-01 0. 9.
     -14    1   16    0    0    0  1.7140323001E+01 -7.8855541379E+00 -3.7334237004E+01  4.1830824631E+01  0.0000000000E+00 0. 9.
</event>
<event>
    12   230  1.000000E+00  3.034082E+02  7.869458E-03  1.071969E-01
       1   -1    0    0  101    0  0.0000000000E+00  0.0000000000E+00  1.7692303098E+03  1.7692303098E+03  0.0000000000E+00 0. 9.
      -2   -1    0    0    0  101  0.0000000000E+00  0.0000000000E+00 -1.0121946433E+02  1.0121946433E+02  0.0000000000E+00 0. 9.
 1000023    2    1    2    0    0  7.1377423655E+01  1.2091384742E+02  1.4858616640E+03  1.5165101701E+03  2.6889276000E+02 0. 9.
-1000024    2    1    2    0    0 -7.1377423655E+01 -1.2091384742E+02  1.8214918138E+02  3.5393960394E+02  2.6903535800E+02 0. 9.
 1000022    1    3    0    0    0  3.1920863788E+01  7.3656779268E+01  5.7270340856E+02  5.9250699860E+02  1.2896157000E+02 0. 9.
      25    2    3    0    0    0  3.9456559867E+01  4.7257068155E+01  9.1315825548E+02  9.2400317154E+02  1.2701893900E+02 0. 9.
 1000022    1    4    0    0    0 -2.3235683319E+01 -1.2533964296E+02  1.8633575488E+02  2.6000389066E+02  1.2896157000E+02 0. 9.
     -24    2    4    0    0    0 -4.8141740336E+01  4.4257955321E+00 -4.1865734992E+00  9.3935713280E+01  8.0431188000E+01 0. 9.
       5    1    6    0  102    0  7.4432837332E+01  4.2207739080E+01  8.1632458722E+02  8.2081094792E+02  4.8000000000E+00 0. 9.
      -5    1    6    0    0  102 -3.4976277465E+01  5.0493290748E+00  9.6833668255E+01  1.0319222363E+02  4.8000000000E+00 0. 9.
       3    1    8    0  103    0 -6.2029589220E+01 -1.7652836751E+01  8.2145429908E+00  6.5015546608E+01  5.0000000000E-01 0. 9.
      -4    1    8    0    0  103  1.3887848884E+01  2.2078632283E+01 -1.2401116490E+01  2.8920166672E+01  1.5000000000E+00 0. 9.
</event>
<event>
    17   258  1.000000E+00  1.083819E+03  7.984628E-03  9.189374E-02
      21   -1    0    0  101  102  0.0000000000E+00  0.0000000000E+00  6.1442997167E+02  6.1442997167E+02  0.0000000000E+00 0. 9.
       2   -1    0    0  102    0  0.0000000000E+00  0.0000000000E+00 -2.3032934867E+03  2.3032934867E+03  0.0000000000E+00 0. 9.
 1000021    2    1    2  101  103 -1.7595980892E+02 -5.2727244702E+02 -1.4139007678E+03  1.7482503357E+03  8.6503512500E+02 0. 9.
 1000002    2    1    2  103    0  1.7595980892E+02  5.2727244702E+02 -2.7496274731E+02  1.1694731227E+03  9.9150632100E+02 0. 9.
-1000024    2    3    0    0    0 -1.5360438313E+02 -2.8001791655E+02 -2.4890592296E+02  4.8614660591E+02  2.6903535800E+02 0. 9.
       2    1    3    0  101    0  1.1847307310E+02 -1.8327463089E+02 -2.4048763415E+02  3.2474585518E+02  3.3000000000E-01 0. 9.
      -1    1    3    0    0  103 -1.4082849889E+02 -6.3979899585E+01 -9.2450721066E+02  9.3735787462E+02  3.3000000000E-01 0. 9.
 1000023    2    4    0    0    0  4.6781452137E+02  4.6853447297E+02 -4.2979759437E+02  8.3390902818E+02  2.6889276000E+02 0. 9.
       2    1    4    0  103    0 -2.9185471245E+02  5.8737974047E+01  1.5483484706E+02  3.3556409453E+02  3.3000000000E-01 0. 9.
 1000022    1    5    0    0    0 -1.7511074926E+02 -2.0059360044E+02 -2.1647745433E+02  3.6659942965E+02  1.2896157000E+02 0. 9.
     -24    2    5    0    0    0  2.1506366135E+01 -7.9424316106E+01 -3.2428468628E+01  1.1954717627E+02  8.0431188000E+01 0. 9.
 1000022    1    8    0    0    0  2.1940747567E+02  2.2011324955E+02 -1.5681719896E+02  3.7123066069E+02  1.2896157000E+02 0. 9.
      25    2    8    0    0    0  2.4840704570E+02  2.4842122342E+02 -2.7298039541E+02  4.6267836749E+02  1.2701893900E+02 0. 9.
       3    1   11    0  104    0  4.5540663035E+01 -7.0982233870E+01 -8.8431988129E+00  8.4799066505E+01  5.0000000000E-01 0. 9.
      -4    1   11    0    0  104 -2.4034296899E+01 -8.4420822357E+00 -2.3585269815E+01  3.4748109764E+01  1.5000000000E+00 0. 9.
       4    1   13    0  105    0  1.7901961851E+02  2.2603284406E+02 -2.6070637906E+02  3.8872732922E+02  1.5000000000E+00 0. 9.
      -4    1   13    0    0  105  6.9387427192E+01  2.2388379361E+01 -1.2274016348E+01  7.3951038262E+01  1.5000000000E+00 0. 9.
</event>
<event>
    12   230  1.000000E+00  3.164193E+02  7.873203E-03  1.066113E-01
       1   -1    0    0  101    0  0.0000000000E+00  0.0000000000E+00  6.7637939646E+02  6.7637939646E+02  0.0000000000E+00 0. 9.
      -2   -1    0    0    0  101  0.0000000000E+00  0.0000000000E+00 -1.4861209728E+02  1.4861209728E+02  0.0000000000E+00 0. 9.
 1000023    2    1    2    0    0 -1.2541926673E+02 -1.0977021169E+02  2.8975681295E+02  4.2900095439E+02  2.6889276000E+02 0. 9.
-1000024    2    1    2    0    0  1.2541926673E+02  1.0977021169E+02  2.3801048623E+02  3.9599053935E+02  2.6903535800E+02 0. 9.
 1000022    1    3    0    0    0 -8.0523329211E+01 -9.8019541164E+01  1.7391045363E+02  2.5093379489E+02  1.2896157000E+02 0. 9.
      25    2    3    0    0    0 -4.4895937522E+01 -1.1750670524E+01  1.1584635931E+02  1.7806715951E+02  1.2701893900E+02 0. 9.
 1000022    1    4    0    0    0 -3.0749100566E+00  1.0240039330E+02  1.2240639032E+02  2.0520649734E+02  1.2896157000E+02 0. 9.
     -24    2    4    0    0    0  1.2849417679E+02  7.3698183858E+00  1.1560409591E+02  1.9078404201E+02  8.0431188000E+01 0. 9.
       5    1    6    0  102    0 -4.5023308675E+01 -3.3406214949E+00  1.4257970245E+02  1.4963378504E+02  4.8000000000E+00 0. 9.
      -5    1    6    0    0  102  1.2737115291E-01 -8.4100490293E+00 -2.6733343136E+01  2.8433374462E+01  4.8000000000E+00 0. 9.
       3    1    8    0  103    0  6.1416700602E+01  2.2349381394E+01  1.0131702236E+02  1.2056904653E+02  5.0000000000E-01 0. 9.
      -4    1    8    0    0  103  6.7077476188E+01 -1.4979563008E+01  1.4287073550E+01  7.0214995480E+01  1.5000000000E+00 0. 9.
</event>
<event>
    19   271  1.000000E+00  1.088007E+03  7.984982E-03  9.185402E-02
       1   -1    0    0  101    0  0.0000000000E+00  0.0000000000E+00  1.0292836835E+03  1.0292836835E+03  0.0000000000E+00 0. 9.
       2   -1    0    0  102    0  0.0000000000E+00  0.0000000000E+00 -1.1813111796E+03  1.1813111796E+03  0.0000000000E+00 0. 9.
 1000001    2    1    2  102    0 -7.2207744554E+01  4.3893983893E+02 -2.5581986971E+02  1.1189265151E+03  9.9431916400E+02 0. 9.
 1000002    2    1    2  101    0  7.2207744554E+01 -4.3893983893E+02  1.0379237362E+02  1.0916683480E+03  9.9150632100E+02 0. 9.
-1000024    2    3    0    0    0  1.3822124120E+02  2.0433891002E+02 -5.6810170115E+02  6.7526222193E+02  2.6903535800E+02 0. 9.
       2    1    3    0  102    0 -2.1042898576E+02  2.3460092891E+02  3.1228183144E+02  4.4366429317E+02  3.3000000000E-01 0. 9.
 1000021    2    4    0  101  103  1.2425361715E+02 -4.5246577635E+02  1.0696072197E+01  9.8415670174E+02  8.6503512500E+02 0. 9.
       2    1    4    0  103    0 -5.2045872595E+01  1.3525937422E+01  9.3096301424E+01  1.0751164623E+02  3.3000000000E-01 0. 9.
 1000022    1    5    0    0    0  1.5354895881E+02  1.9088382493E+02 -4.8086152922E+02  5.5486287874E+02  1.2896157000E+02 0. 9.
     -24    2    5    0    0    0 -1.5327717613E+01  1.3455085089E+01 -8.7240171923E+01  1.2039934320E+02  8.0431188000E+01 0. 9.
 1000024    2    7    0    0    0 -5.4092078836E+01 -4.7628299900E+02  2.1158991694E+02  5.8900064935E+02  2.6903535800E+02 0. 9.
      -2    1    7    0    0  103  1.3487581637E+02  1.4514962410E+02 -6.6633517786E+01  2.0904553047E+02  3.3000000000E-01 0. 9.
       1    1    7    0  101    0  4.3469879615E+01 -1.2133240145E+02 -1.3426032695E+02  1.8611052192E+02  3.3000000000E-01 0. 9.
       3    1   10    0  104    0 -2.9911105153E+01 -1.5752498592E+01 -8.0107188246E+01  8.6949566026E+01  5.0000000000E-01 0. 9.
      -4    1   10    0    0  104  1.4583387540E+01  2.9207583681E+01 -7.1329836766E+00  3.3449777171E+01  1.5000000000E+00 0. 9.
 1000022    1   11    0    0    0 -1.0740666391E+02 -3.0827766898E+02  1.7351933354E+02  3.9154994355E+02  1.2896157000E+02 0. 9.
      24    2   11    0    0    0  5.3314585078E+01 -1.6800533003E+02  3.8070583398E+01  1.9745070580E+02  8.0431188000E+01 0. 9.
      -3    1   17    0    0  105  6.7786129036E+01 -8.2894054437E+01  1.5451847354E+01  1.0819146518E+02  5.0000000000E-01 0. 9.
       4    1   17    0  105    0 -1.4471543958E+01 -8.5111275589E+01  2.2618736044E+01  8.9259240626E+01  1.5000000000E+00 0. 9.
</event>
<event>
    28   259  1.000000E+00  9.311591E+02  7.970718E-03  9.348512E-02
       1   -1    0    0  101    0  0.0000000000E+00  0.0000000000E+00  1.6966516467E+03  1.6966516467E+03  0.0000000000E+00 0. 9.
      21   -1    0    0  102  101  0.0000000000E+00  0.0000000000E+00 -6.3366948303E+02  6.3366948303E+02  0.0000000000E+00 0. 9.
 2000001    2    1    2  103    0  8.4463460333E+00 -3.3211928901E+01  1.0770723916E+03  1.4644928125E+03  9.9170554500E+02 0. 9.
 1000021    2    1    2  102  103 -8.4463460333E+00  3.3211928901E+01 -1.4090227947E+01  8.6582831727E+02  8.6503512500E+02 0. 9.
 1000021    2    3    0  103  104 -7.7822813484E+01 -1.0610311539E+02  9.9426141008E+02  1.3244454615E+03  8.6503512500E+02 0. 9.
       1    1    3    0  104    0  8.6269159518E+01  7.2891186488E+01  8.2810981531E+01  1.4004735097E+02  3.3000000000E-01 0. 9.
-1000024    2    4    0    0    0  1.1930052339E+02 -2.3712326063E+01 -1.6257534237E+02  3.3705438002E+02  2.6903535800E+02 0. 9.
       6    2    4    0  102    0 -4.1700041185E+01 -1.4308042463E+02 -5.0239547251E+01  2.3395117750E+02  1.7320000000E+02 0. 9.
      -5    1    4    0    0  103 -8.6046828241E+01  2.0000467959E+02  1.9872466168E+02  2.9482275975E+02  4.8000000000E+00 0. 9.
-1000024    2    5    0    0    0 -1.5621063649E+02 -1.8193613551E+02  7.7248130505E+02  8.5241416627E+02  2.6903535800E+02 0. 9.
       6    2    5    0  103    0  1.2993410912E+02  1.1242609413E+02  2.8995240684E+02  3.7893685172E+02  1.7320000000E+02 0. 9.
      -5    1    5    0    0  104 -5.1546286114E+01 -3.6593074008E+01 -6.8172301805E+01  9.3094443501E+01  4.8000000000E+00 0. 9.
 1000022    1    7    0    0    0  9.1523661321E+01  3.0177823865E+01 -1.7236734443E+02  2.3585773169E+02  1.2896157000E+02 0. 9.
     -24    2    7    0    0    0  2.7776862072E+01 -5.3890149928E+01  9.7920020594E+00  1.0119664833E+02  8.0431188000E+01 0. 9.
      24    2    8    0    0    0  2.1264351322E+01 -1.1270186115E+02  1.1506688225E+01  1.4055412488E+02  8.0431188000E+01 0. 9.
       5    1    8    0  102    0 -6.2964392507E+01 -3.0378563474E+01 -6.1746235476E+01  9.3397052619E+01  4.8000000000E+00 0. 9.
 1000022    1   10    0    0    0 -6.3101193881E+01 -5.1242311464E+01  1.9402006072E+02  2.4674360307E+02  1.2896157000E+02 0. 9.
     -24    2   10    0    0    0 -9.3109442614E+01 -1.3069382405E+02  5.7846124432E+02  6.0567056321E+02  8.0431188000E+01 0. 9.
      24    2   11    0    0    0  1.4443033987E+02  9.7065098511E+01  1.6746620147E+02  2.5455031145E+02  8.0431188000E+01 0. 9.
       5    1   11    0  103    0 -1.4496230743E+01  1.5360995621E+01  1.2248620537E+02  1.2438654026E+02  4.8000000000E+00 0. 9.
       3    1   14    0  105    0  1.8306174696E+01  2.6974618882E+00  3.4152685908E+01  3.8846470720E+01  5.0000000000E-01 0. 9.
      -4    1   14    0    0  105  9.4706873762E+00 -5.6587611816E+01 -2.4360683849E+01  6.2350177610E+01  1.5000000000E+00 0. 9.
      -1    1   15    0    0  106  3.1298654871E+01 -1.0519217145E+02 -1.5442429501E+01  1.1083129640E+02  3.3000000000E-01 0. 9.
       2    1   15    0  106    0 -1.0034303550E+01 -7.5096897002E+00  2.6949117725E+01  2.9722828487E+01  3.3000000000E-01 0. 9.
      15    1   18    0    0    0 -4.6080392707E+01 -2.2954455625E+01  9.4406635788E+01  1.0754571230E+02  1.7770000000E+00 0. 9.
     -16    1   18    0    0    0 -4.7029049907E+01 -1.0773936842E+02  4.8405460853E+02  4.9812485090E+02  0.0000000000E+00 0. 9.
      -3    1   19    0    0  107  3.0763164489E+01  6.5478688970E+01  7.8719443707E+01  1.0691506824E+02  5.0000000000E-01 0. 9.
       4    1   19    0  107    0  1.1366717538E+02  3.1586409541E+01  8.8746757763E+01  1.4763524322E+02  1.5000000000E+00 0. 9.
</event>
<event>
    12   230  1.000000E+00  3.093361E+02  7.871183E-03  1.069262E-01
      -1   -1    0    0    0  101  0.0000000000E+00  0.0000000000E+00  8.4250023888E+01  8.4250023888E+01  0.0000000000E+00 0. 9.
       2   -1    0    0  101    0  0.0000000000E+00  0.0000000000E+00 -1.2501928602E+03  1.2501928602E+03  0.0000000000E+00 0. 9.
 1000023    2    1    2    0    0 -5.3077283268E+01 -1.4328277303E+02 -7.8471776412E+02  8.4346454386E+02  2.6889276000E+02 0. 9.
 1000024    2    1    2    0    0  5.3077283268E+01  1.4328277303E+02 -3.8122507218E+02  4.9097834022E+02  2.6903535800E+02 0. 9.
 1000022    1    3    0    0    0  4.7677632681E-02 -8.8950773525E+01 -3.3075130349E+02  3.6597780490E+02  1.2896157000E+02 0. 9.
      25    2    3    0    0    0 -5.3124960900E+01 -5.4331999505E+01 -4.5396646063E+02  4.7748673896E+02  1.2701893900E+02 0. 9.
 1000022    1    4    0    0    0  9.3607568206E+01  7.1818592747E+01 -1.4068910855E+02  2.2437646688E+02  1.2896157000E+02 0. 9.
      24    2    4    0    0    0 -4.0530284938E+01  7.1464180283E+01 -2.4053596363E+02  2.6660187333E+02  8.0431188000E+01 0. 9.
       5    1    6    0  102    0 -1.4384634373E+01  4.3690448515E+00  2.1745939977E+00  1.5930320713E+01  4.8000000000E+00 0. 9.
      -5    1    6    0    0  102 -3.8740326527E+01 -5.8701044356E+01 -4.5614105462E+02  4.6155641824E+02  4.8000000000E+00 0. 9.
      -3    1    8    0    0  103 -2.4037615655E+01  7.4043874911E+01 -1.0868477323E+02  1.3368968663E+02  5.0000000000E-01 0. 9.
       4    1    8    0  103    0 -1.6492669283E+01 -2.5796946288E+00 -1.3185119040E+02  1.3291218670E+02  1.5000000000E+00 0. 9.
</event>
<event>
    12   230  1.000000E+00  3.122131E+02  7.872009E-03  1.067973E-01
      -2   -1    0    0    0  101  0.0000000000E+00  0.0000000000E+00  1.0134960382E+02  1.0134960382E+02  0.0000000000E+00 0. 9.
       1   -1    0    0  101    0  0.0000000000E+00  0.0000000000E+00 -9.6531504324E+02  9.6531504324E+02  0.0000000000E+00 0. 9.
-1000024    2    1    2    0    0 -3.8657654296E+01 -1.5375606912E+02 -3.9983731033E+02  5.0733149086E+02  2.6903535800E+02 0. 9.
 1000023    2    1    2    0    0  3.8657654296E+01  1.5375606912E+02 -4.6412812909E+02  5.5933315620E+02  2.6889276000E+02 0. 9.
 1000022    1    3    0    0    0  4.2422759474E+01 -7.6732256884E+01 -2.9691271585E+02  3.3537408537E+02  1.2896157000E+02 0. 9.
     -24    2    3    0    0    0 -8.1080413770E+01 -7.7023812239E+01 -1.0292459448E+02  1.7195740548E+02  8.0431188000E+01 0. 9.
 1000022    1    4    0    0    0 -7.4287345277E+00  1.0923235322E+02 -2.7086960681E+02  3.1935610769E+02  1.2896157000E+02 0. 9.
      25    2    4    0    0    0  4.6086388824E+01  4.4523715901E+01 -1.9325852228E+02  2.3997704851E+02  1.2701893900E+02 0. 9.
       3    1    6    0  102    0 -4.6217509776E+01 -4.4743943136E+01 -1.0635608418E+02  1.2429780891E+02  5.0000000000E-01 0. 9.
      -4    1    6    0    0  102 -3.4862903994E+01 -3.2279869104E+01  3.4314897006E+00  4.7659596577E+01  1.5000000000E+00 0. 9.
       5    1    8    0  103    0  7.4067192970E+01  2.4832358744E+01 -5.0610175541E+01  9.3204211190E+01  4.8000000000E+00 0. 9.
      -5    1    8    0    0  103 -2.7980804146E+01  1.9691357157E+01 -1.4264834673E+02  1.4677283731E+02  4.8000000000E+00 0. 9.
</event>
<event>
    20   235  1.000000E+00  8.701667E+02  7.964527E-03  9.421317E-02
      -1   -1    0    0    0  101  0.0000000000E+00  0.0000000000E+00  5.3111521526E+02  5.3111521526E+02  0.0000000000E+00 0. 9.
       2   -1    0    0  101    0  0.0000000000E+00  0.0000000000E+00 -1.4320709028E+03  1.4320709028E+03  0.0000000000E+00 0. 9.
 1000025    2    1    2    0    0  4.2892426010E+02 -1.5092812851E+02 -5.1449512006E+02  1.0079295880E+03  7.3787634800E+02 0. 9.
 1000037    2    1    2    0    0 -4.2892426010E+02  1.5092812851E+02 -3.8646056753E+02  9.5525653009E+02  7.4592757500E+02 0. 9.
 1000023    2    3    0    0    0  1.6426303550E+02  2.0001109372E+02 -3.9491429244E+02  5.4336672441E+02  2.6889276000E+02 0. 9.
      23    2    3    0    0    0  2.6466122461E+02 -3.5093922223E+02 -1.1958082763E+02  4.6456286360E+02  9.1187600000E+01 0. 9.
 1000024    2    4    0    0    0 -3.4941332664E+02 -1.6623419357E+02 -5.8238280712E+01  4.7486334996E+02  2.6903535800E+02 0. 9.
      25    2    4    0    0    0 -7.9510933463E+01  3.1716232208E+02 -3.2822228682E+02  4.8039318013E+02  1.2701893900E+02 0. 9.
 1000022    1    5    0    0    0  4.0622348884E+01  1.6867668549E+02 -2.3856338138E+02  3.2194032511E+02  1.2896157000E+02 0. 9.
      23    2    5    0    0    0  1.2364068661E+02  3.1334408228E+01 -1.5635091106E+02  2.2142639930E+02  9.1187600000E+01 0. 9.
       5    1    6    0  102    0  2.5301922822E+02 -3.3596254611E+02 -1.3265132513E+02  4.4103171802E+02  4.8000000000E+00 0. 9.
      -5    1    6    0    0  102  1.1641996385E+01 -1.4976676124E+01  1.3070497508E+01  2.3531145588E+01  4.8000000000E+00 0. 9.
 1000022    1    7    0    0    0 -8.5043996237E+01 -4.2834638875E+01 -6.2866075761E+01  1.7219325655E+02  1.2896157000E+02 0. 9.
      24    2    7    0    0    0 -2.6436933040E+02 -1.2339955469E+02  4.6277950491E+00  3.0267009341E+02  8.0431188000E+01 0. 9.
       5    1    8    0  103    0 -5.8765255564E+01  1.1070724889E+02 -5.4193394271E+01  1.3663606479E+02  4.8000000000E+00 0. 9.
      -5    1    8    0    0  103 -2.0745677900E+01  2.0645507318E+02 -2.7402889255E+02  3.4375711534E+02  4.8000000000E+00 0. 9.
       2    1   10    0  104    0  6.6031584785E+01  4.6692537025E+01 -1.3636638778E+02  1.5854420147E+02  3.3000000000E-01 0. 9.
      -2    1   10    0    0  104  5.7609101829E+01 -1.5358128797E+01 -1.9984523277E+01  6.2882197833E+01  3.3000000000E-01 0. 9.
      -3    1   14    0    0  105 -2.5858440619E+02 -1.2827775443E+02 -6.9728861132E+00  2.8873854704E+02  5.0000000000E-01 0. 9.
       4    1   14    0  105    0 -5.7849242116E+00  4.8781997391E+00  1.1600681162E+01  1.3931546370E+01  1.5000000000E+00 0. 9.
</event>
<event>
    24   259  1.000000E+00  1.487658E+03  8.013804E-03  8.874231E-02
       1   -1    0    0  101    0  0.0000000000E+00  0.0000000000E+00  1.2879301903E+03  1.2879301903E+03  0.0000000000E+00 0. 9.
      21   -1    0    0  102  103  0.0000000000E+00  0.0000000000E+00 -1.8228376721E+03  1.8228376721E+03  0.0000000000E+00 0. 9.
 2000001    2    1    2  102    0 -2.3754019528E+01 -1.1604653230E+03  1.0025164938E+02  1.5299589212E+03  9.9170554500E+02 0. 9.
 1000021    2    1    2  101  103  2.3754019528E+01  1.1604653230E+03 -6.3515913118E+02  1.5808089413E+03  8.6503512500E+02 0. 9.
 1000021    2    3    0  102  104 -2.0006773651E+01 -1.0934978808E+03 -1.7396144640E+01  1.3945344312E+03  8.6503512500E+02 0. 9.
       1    1    3    0  104    0 -3.7472458776E+00 -6.6967442199E+01  1.1764779402E+02  1.3542449004E+02  3.3000000000E-01 0. 9.
 1000024    2    4    0    0    0 -5.5301414625E+01  9.9425128487E+02 -4.2578024890E+02  1.1159133963E+03  2.6903535800E+02 0. 9.
      -6    2    4    0    0  103  1.6180650178E+02  1.9449678715E+02 -9.5307112988E+01  3.2107947617E+02  1.7320000000E+02 0. 9.
       5    1    4    0  101    0 -8.2751067630E+01 -2.8282748989E+01 -1.1407176930E+02  1.4381606876E+02  4.8000000000E+00 0. 9.
 1000023    2    5    0    0    0  1.3816340662E+02 -4.3510628001E+02  7.5326720609E+01  5.3514860838E+02  2.6889276000E+02 0. 9.
       5    1    5    0  102    0  1.5875598655E+02 -2.2212695566E+02  9.3886809216E+01  2.8875875855E+02  4.8000000000E+00 0. 9.
      -5    1    5    0    0  104 -3.1692616682E+02 -4.3626464516E+02 -1.8660967446E+02  5.7062706424E+02  4.8000000000E+00 0. 9.
 1000022    1    7    0    0    0  6.6553640259E+00  2.6140960114E+02 -1.1393793719E+02  3.1303708008E+02  1.2896157000E+02 0. 9.
      24    2    7    0    0    0 -6.1956778651E+01  7.3284168373E+02 -3.1184231170E+02  8.0287631626E+02  8.0431188000E+01 0. 9.
     -24    2    8    0    0    0  1.0487070745E+02  2.0247015770E+02 -1.0312430851E+02  2.6286085492E+02  8.0431188000E+01 0. 9.
      -5    1    8    0    0  103  5.6935794329E+01 -7.9733705533E+00  7.8171955238E+00  5.8218621246E+01  4.8000000000E+00 0. 9.
 1000022    1   10    0    0    0  7.8200788358E+01 -2.9208495151E+02  3.4061567311E+01  3.3048488483E+02  1.2896157000E+02 0. 9.
      25    2   10    0    0    0  5.9962618264E+01 -1.4302132850E+02  4.1265153297E+01  2.0466372355E+02  1.2701893900E+02 0. 9.
      -3    1   14    0    0  105 -6.8649034129E+01  6.7560009718E+02 -2.6637954075E+02  7.2945629816E+02  5.0000000000E-01 0. 9.
       4    1   14    0  105    0  6.6922554779E+00  5.7241586550E+01 -4.5462770958E+01  7.3420018097E+01  1.5000000000E+00 0. 9.
      13    1   15    0    0    0  1.1767336702E+02  1.7976584984E+02 -8.4730224534E+01  2.3095887986E+02  1.0566000000E-01 0. 9.
     -14    1   15    0    0    0 -1.2802659563E+01  2.2704307864E+01 -1.8394083978E+01  3.1901975062E+01  0.0000000000E+00 0. 9.
       5    1   18    0  106    0  4.9140596830E+01 -1.1843470753E+02  8.4427291698E+01  1.5359878185E+02  4.8000000000E+00 0. 9.
      -5    1   18    0    0  106  1.0822021435E+01 -2.4586620972E+01 -4.3162138400E+01  5.1064941692E+01  4.8000000000E+00 0. 9.
</event>
<event>
    21   258  1.000000E+00  1.015894E+03  7.978692E-03  9.256550E-02
      21   -1    0    0  101  102  0.0000000000E+00  0.0000000000E+00  7.6450249760E+02  7.6450249760E+02  0.0000000000E+00 0. 9.
       2   -1    0    0  102    0  0.0000000000E+00  0.0000000000E+00 -1.3503396764E+03  1.3503396764E+03  0.0000000000E+00 0. 9.
 1000021    2    1    2  101  103  3.8418161334E+02 -1.3696325020E+02 -2.1350733894E+02  9.7991101392E+02  8.6503512500E+02 0. 9.
 1000002    2    1    2  103    0 -3.8418161334E+02  1.3696325020E+02 -3.7232983989E+02  1.1349311601E+03  9.9150632100E+02 0. 9.
 1000024    2    3    0    0    0  4.6887829775E+02 -1.8910152055E+01 -2.2079863869E+02  5.8424011729E+02  2.6903535800E+02 0. 9.
      -6    2    3    0    0  103 -7.1282628457E+01  3.9545995646E+01  9.6120172935E+01  2.1420183598E+02  1.7320000000E+02 0. 9.
       5    1    3    0  101    0 -1.3414055952E+01 -1.5759909379E+02 -8.8828873189E+01  1.8146906065E+02  4.8000000000E+00 0. 9.
 1000023    2    4    0    0    0 -4.6596692608E+02  1.7013052870E+02  1.6699039459E+02  5.8843749138E+02  2.6889276000E+02 0. 9.
       2    1    4    0  103    0  8.1785312741E+01 -3.3167278496E+01 -5.3932023448E+02  5.4649366873E+02  3.3000000000E-01 0. 9.
 1000022    1    5    0    0    0  1.2663804114E+02 -4.6690289026E+01 -9.7812474247E+01  2.1074995423E+02  1.2896157000E+02 0. 9.
      24    2    5    0    0    0  3.4224025662E+02  2.7780136971E+01 -1.2298616444E+02  3.7349016307E+02  8.0431188000E+01 0. 9.
     -24    2    6    0    0    0  2.6697371642E+01  2.9952780340E+01  2.7124148057E+01  9.3887241484E+01  8.0431188000E+01 0. 9.
      -5    1    6    0    0  103 -9.7980000098E+01  9.5932153061E+00  6.8996024878E+01  1.2031459449E+02  4.8000000000E+00 0. 9.
 1000022    1    8    0    0    0 -1.5180549899E+02  6.0806235938E+01  1.1993998361E+02  2.4033100935E+02  1.2896157000E+02 0. 9.
      23    2    8    0    0    0 -3.1416142710E+02  1.0932429276E+02  4.7050410979E+01  3.4810648203E+02  9.1187600000E+01 0. 9.
     -13    1   11    0    0    0  2.8198351506E+02  5.2172865543E+01 -1.1033988392E+02  3.0726472595E+02  1.0566000000E-01 0. 9.
      14    1   11    0    0    0  6.0256741555E+01 -2.4392728572E+01 -1.2646280520E+01  6.6225437114E+01  0.0000000000E+00 0. 9.
       3    1   12    0  104    0  4.3922774426E+01  4.4748602800E+01  3.2320668015E+01  7.0544476373E+01  5.0000000000E-01 0. 9.
      -4    1   12    0    0  104 -1.7225402785E+01 -1.4795822460E+01 -5.1965199585E+00  2.3342765111E+01  1.5000000000E+00 0. 9.
      13    1   15    0    0    0 -5.2185825294E+01  8.6102098026E+00 -2.4756231265E+01  5.8398443685E+01  1.0566000000E-01 0. 9.
     -13    1   15    0    0    0 -2.6197560181E+02  1.0071408296E+02  7.1806642244E+01  2.8970803834E+02  1.0566000000E-01 0. 9.
</event>
<event>
    16   259  1.000000E+00  9.695504E+02  7.974415E-03  9.305625E-02
       2   -1    0    0  101    0  0.0000000000E+00  0.0000000000E+00  1.0170169651E+03  1.0170169651E+03  0.0000000000E+00 0. 9.
      21   -1    0    0  102  101  0.0000000000E+00  0.0000000000E+00 -9.6343067661E+02  9.6343067661E+02  0.0000000000E+00 0. 9.
 2000002    2    1    2  103    0  2.4140081932E+02  1.2756887149E+02 -1.7977115659E+02  1.0438102320E+03  9.9129912700E+02 0. 9.
 1000021    2    1    2  102  103 -2.4140081932E+02 -1.2756887149E+02  2.3335744506E+02  9.3663740967E+02  8.6503512500E+02 0. 9.
 1000021    2    3    0  103  104  3.2263565792E+02  1.6588398388E+02 -1.5612901611E+02  9.5093285832E+02  8.6503512500E+02 0. 9.
       2    1    3    0  104    0 -8.1234838604E+01 -3.8315112385E+01 -2.3642140479E+01  9.2877373706E+01  3.3000000000E-01 0. 9.
 1000023    2    4    0    0    0  1.2390351554E+02 -6.8328780004E+01 -1.3144831862E+02  3.3106325708E+02  2.6889276000E+02 0. 9.
       4    1    4    0  102    0 -1.1992447337E+02 -6.9328259603E+01  3.2952725629E+02  3.5746153574E+02  1.5000000000E+00 0. 9.
      -4    1    4    0    0  103 -2.4537986148E+02  1.0088168117E+01  3.5278507396E+01  2.4811261685E+02  1.5000000000E+00 0. 9.
 1000022    1    5    0    0    0 -1.1092992025E+02  6.3242377275E+01  1.2848594743E+02  2.2236180138E+02  1.2896157000E+02 0. 9.
       1    1    5    0  103    0  1.2472089304E+02 -8.4078339691E+01  1.1556929830E+02  1.8968616180E+02  3.3000000000E-01 0. 9.
      -1    1    5    0    0  104  3.0884468512E+02  1.8671994629E+02 -4.0018426185E+02  5.3888489514E+02  3.3000000000E-01 0. 9.
 1000022    1    7    0    0    0  4.3581202197E+01  5.6717665407E+00 -6.2937776502E+01  1.5007911370E+02  1.2896157000E+02 0. 9.
      25    2    7    0    0    0  8.0322313341E+01 -7.4000546544E+01 -6.8510542119E+01  1.8098414338E+02  1.2701893900E+02 0. 9.
       5    1   14    0  105    0 -4.4267257457E-01 -3.8698402565E+01  2.9635829136E+01  4.8980452107E+01  4.8000000000E+00 0. 9.
      -5    1   14    0    0  105  8.0764985915E+01 -3.5302143980E+01 -9.8146371255E+01  1.3200369127E+02  4.8000000000E+00 0. 9.
</event>
<event>
    12   230  1.000000E+00  3.473880E+02  7.881545E-03  1.053319E-01
      -2   -1    0    0    0  101  0.0000000000E+00  0.0000000000E+00  1.1796356639E+02  1.1796356639E+02  0.0000000000E+00 0. 9.
       1   -1    0    0  101    0  0.0000000000E+00  0.0000000000E+00 -1.0823233420E+03  1.0823233420E+03  0.0000000000E+00 0. 9.
-1000024    2    1    2    0    0 -1.4866058145E+02 -1.6197768206E+02 -3.4176492662E+02  4.8736026396E+02  2.6903535800E+02 0. 9.
 1000023    2    1    2    0    0  1.4866058145E+02  1.6197768206E+02 -6.2259484898E+02  7.1292664442E+02  2.6889276000E+02 0. 9.
 1000022    1    3    0    0    0 -4.0630487280E+01 -8.9227587795E+01 -2.7753465762E+02  3.2135489982E+02  1.2896157000E+02 0. 9.
     -24    2    3    0    0    0 -1.0803009417E+02 -7.2750094270E+01 -6.4230268991E+01  1.6600536413E+02  8.0431188000E+01 0. 9.
 1000022    1    4    0    0    0  9.5620512436E+01  9.1777285367E+01 -4.1319597685E+02  4.5269013059E+02  1.2896157000E+02 0. 9.
      25    2    4    0    0    0  5.3040069018E+01  7.0200396698E+01 -2.0939887213E+02  2.6023651383E+02  1.2701893900E+02 0. 9.
       3    1    6    0  102    0 -3.4382320484E+01 -6.3178207925E+01 -5.6217096010E+01  9.1292068671E+01  5.0000000000E-01 0. 9.
      -4    1    6    0    0  102 -7.3647773691E+01 -9.5718863450E+00 -8.0131729818E+00  7.4713295464E+01  1.5000000000E+00 0. 9.
     -15    1    8    0    0    0  7.2705694090E+01  6.8731698213E+01 -7.6730554790E+01  1.2609877105E+02  1.7770000000E+00 0. 9.
      15    1    8    0    0    0 -1.9665625072E+01  1.4686984852E+00 -1.3266831734E+02  1.3413774279E+02  1.7770000000E+00 0. 9.
</event>
<event>
    12   230  1.000000E+00  2.948081E+02  7.866895E-03  1.076016E-01
       2   -1    0    0  101    0  0.0000000000E+00  0.0000000000E+00  3.0499781143E+03  3.0499781143E+03  0.0000000000E+00 0. 9.
      -1   -1    0    0    0  101  0.0000000000E+00  0.0000000000E+00 -3.7477922870E+01  3.7477922870E+01  0.0000000000E+00 0. 9.
 1000024    2    1    2    0    0 -1.0575305569E+02 -5.8193016613E+01  2.2622397347E+03  2.2813765093E+03  2.6903535800E+02 0. 9.
 1000023    2    1    2    0    0  1.0575305569E+02  5.8193016613E+01  7.5026045670E+02  8.0607952786E+02  2.6889276000E+02 0. 9.
 1000022    1    3    0    0    0 -1.0746558120E+02  7.4610232573E+00  1.7892273679E+03  1.7971004921E+03  1.2896157000E+02 0. 9.
      24    2    3    0    0    0  1.7125255092E+00 -6.5654039871E+01  4.7301236679E+02  4.8427601720E+02  8.0431188000E+01 0. 9.
 1000022    1    4    0    0    0  3.7524053294E+01  2.2666607356E+01  4.6422050311E+02  4.8379085533E+02  1.2896157000E+02 0. 9.
      25    2    4    0    0    0  6.8229002398E+01  3.5526409257E+01  2.8603995359E+02  3.2228867253E+02  1.2701893900E+02 0. 9.
      -3    1    6    0    0  102 -3.5595579891E+01 -5.1547930100E+01  3.2461655068E+02  3.3060609398E+02  5.0000000000E-01 0. 9.
       4    1    6    0  102    0  3.7308105400E+01 -1.4106109771E+01  1.4839581611E+02  1.5366992322E+02  1.5000000000E+00 0. 9.
       5    1    8    0  103    0  1.5565464109E+00  1.2796184515E+00  2.2619456530E+02  2.2625446212E+02  4.8000000000E+00 0. 9.
      -5    1    8    0    0  103  6.6672455987E+01  3.4246790806E+01  5.9845388297E+01  9.6034210406E+01  4.8000000000E+00 0. 9.
</event>
<event>
    17   258  1.000000E+00  9.881658E+02  7.976157E-03  9.285574E-02
       2   -1    0    0  101    0  0.0000000000E+00  0.0000000000E+00  1.7006540628E+03  1.7006540628E+03  0.0000000000E+00 0. 9.
      21   -1    0    0  102  101  0.0000000000E+00  0.0000000000E+00 -8.5936234397E+02  8.5936234397E+02  0.0000000000E+00 0. 9.
 1000002    2    1    2  103    0  2.9263199321E+02  1.5859642602E+02  1.1767093392E+03  1.5743303221E+03  9.9150632100E+02 0. 9.
 1000021    2    1    2  102  103 -2.9263199321E+02 -1.5859642602E+02 -3.3541762037E+02  9.8568608458E+02  8.6503512500E+02 0. 9.
 1000024    2    3    0    0    0  2.3092384227E+02 -3.6648387144E+02  6.7050849152E+02  8.4237634702E+02  2.6903535800E+02 0. 9.
       1    1    3    0  103    0  6.1708150941E+01  5.2508029746E+02  5.0620084763E+02  7.3195397513E+02  3.3000000000E-01 0. 9.
 1000024    2    4    0    0    0 -1.3487533417E+02  2.2113454580E+02 -7.0340222440E+01  3.8002580683E+02  2.6903535800E+02 0. 9.
      -4    1    4    0    0  103 -1.9432083867E+02 -9.2429003918E+01 -2.2827377467E+02  3.1371145231E+02  1.5000000000E+00 0. 9.
       3    1    4    0  102    0  3.6564179629E+01 -2.8730196790E+02 -3.6803623264E+01  2.9194882544E+02  5.0000000000E-01 0. 9.
 1000022    1    5    0    0    0  2.2105699843E+02 -2.5727006411E+02  4.0313340111E+02  5.4240363943E+02  1.2896157000E+02 0. 9.
      24    2    5    0    0    0  9.8668438421E+00 -1.0921380732E+02  2.6737509042E+02  2.9997270758E+02  8.0431188000E+01 0. 9.
 1000022    1    7    0    0    0 -9.5994645779E+00  3.3487531430E+01 -3.3037175807E+01  1.3760852446E+02  1.2896157000E+02 0. 9.
      24    2    7    0    0    0 -1.2527586959E+02  1.8764701437E+02 -3.7303046633E+01  2.4241728238E+02  8.0431188000E+01 0. 9.
     -13    1   11    0    0    0  1.8521051747E+01 -7.2463218181E+01  2.4482668077E+02  2.5599621506E+02  1.0566000000E-01 0. 9.
      14    1   11    0    0    0 -8.6542079051E+00 -3.6750589144E+01  2.2548409650E+01  4.3976492523E+01  0.0000000000E+00 0. 9.
      -3    1   13    0    0  104 -8.0404540571E+00  6.9232297807E+01  6.8306914038E+00  7.0033337105E+01  5.0000000000E-01 0. 9.
       4    1   13    0  104    0 -1.1723541553E+02  1.1841471656E+02 -4.4133738037E+01  1.7238394527E+02  1.5000000000E+00 0. 9.
</event>
<event>
    19   273  1.000000E+00  1.404524E+03  8.008491E-03  8.929834E-02
       1   -1    0    0  101    0  0.0000000000E+00  0.0000000000E+00  1.2458477176E+03  1.2458477176E+03  0.0000000000E+00 0. 9.
       2   -1    0    0  102    0  0.0000000000E+00  0.0000000000E+00 -1.6456422485E+03  1.6456422485E+03  0.0000000000E+00 0. 9.
 2000001    2    1    2  102    0  6.8512409648E+02  7.2111803693E+02 -4.8105124063E+02  1.4846873189E+03  9.9170554500E+02 0. 9.
 1000002    2    1    2  101    0 -6.8512409648E+02 -7.2111803693E+02  8.1256709733E+01  1.4068026472E+03  9.9150632100E+02 0. 9.
 1000021    2    3    0  102  103  5.5362105510E+02  5.2914867396E+02 -3.1091687696E+02  1.1964320556E+03  8.6503512500E+02 0. 9.
       1    1    3    0  103    0  1.3150304138E+02  1.9196936297E+02 -1.7013436367E+02  2.8825526328E+02  3.3000000000E-01 0. 9.
 1000024    2    4    0    0    0  5.8751498485E+01 -5.2420968259E+02 -1.3533210758E+02  6.0740623399E+02  2.6903535800E+02 0. 9.
       1    1    4    0  101    0 -7.4387559496E+02 -1.9690835434E+02  2.1658881732E+02  7.9939641322E+02  3.3000000000E-01 0. 9.
 1000024    2    5    0    0    0  3.8606913209E+01  7.3280080150E+01  5.3668040988E+00  2.8154802492E+02  2.6903535800E+02 0. 9.
      -4    1    5    0    0  103  7.2502911918E+00 -8.7840036304E+01  3.1574589272E+01  9.3635695052E+01  1.5000000000E+00 0. 9.
       3    1    5    0  102    0  5.0776385070E+02  5.4370863011E+02 -3.4785827033E+02  8.2124833563E+02  5.0000000000E-01 0. 9.
 1000022    1    7    0    0    0  1.1024794328E+02 -2.7180434770E+02 -4.9474204235E+01  3.2420825999E+02  1.2896157000E+02 0. 9.
      24    2    7    0    0    0 -5.1496444793E+01 -2.5240533489E+02 -8.5857903348E+01  2.8319797400E+02  8.0431188000E+01 0. 9.
 1000022    1    9    0    0    0 -4.2095522933E+01 -9.4138541419E+00 -2.3049869416E+01  1.3792402517E+02  1.2896157000E+02 0. 9.
      24    2    9    0    0    0  8.0702436142E+01  8.2693934292E+01  2.8416673515E+01  1.4362399975E+02  8.0431188000E+01 0. 9.
      -1    1   13    0    0  104 -6.7032051836E+01 -1.5405024175E+02 -3.5908772601E+01  1.7179732771E+02  3.3000000000E-01 0. 9.
       2    1   13    0  104    0  1.5535607043E+01 -9.8355093140E+01 -4.9949130747E+01  1.1140064630E+02  3.3000000000E-01 0. 9.
      -3    1   15    0    0  105  7.3200459342E+01  3.0397453198E+01  4.1079197393E+01  8.9275208582E+01  5.0000000000E-01 0. 9.
       4    1   15    0  105    0  7.5019768002E+00  5.2296481094E+01 -1.2662523878E+01  5.4348791170E+01  1.5000000000E+00 0. 9.
</event>
<event>
    12   230  1.000000E+00  3.065237E+02  7.870369E-03  1.070538E-01
      -2   -1    0    0    0  101  0.0000000000E+00  0.0000000000E+00  2.3494611891E+02  2.3494611891E+02  0.0000000000E+00 0. 9.
       1   -1    0    0  101    0  0.0000000000E+00  0.0000000000E+00 -4.5251136009E+02  4.5251136009E+02  0.0000000000E+00 0. 9.
-1000024    2    1    2    0    0 -1.1519963563E+02  9.1346333130E+01  8.3926948623E+00  3.0670110826E+02  2.6903535800E+02 0. 9.
 1000023    2    1    2    0    0  1.1519963563E+02 -9.1346333130E+01 -2.2595793604E+02  3.8075637075E+02  2.6889276000E+02 0. 9.
 1000022    1    3    0    0    0 -3.9467793448E+00  1.0802833525E+02  6.2781995131E+00  1.6839299454E+02  1.2896157000E+02 0. 9.
     -24    2    3    0    0    0 -1.1125285628E+02 -1.6682002122E+01  2.1144953492E+00  1.3830811372E+02  8.0431188000E+01 0. 9.
 1000022    1    4    0    0    0  2.7704853378E+01  2.3804379885E+01 -8.1014473769E+01  1.5661621531E+02  1.2896157000E+02 0. 9.
      23    2    4    0    0    0  8.7494782251E+01 -1.1515071302E+02 -1.4494346227E+02  2.2414015543E+02  9.1187600000E+01 0. 9.
       3    1    6    0  102    0 -3.4636797601E+01  1.3664806906E+01  3.3523868699E+01  5.0105233942E+01  5.0000000000E-01 0. 9.
      -4    1    6    0    0  102 -7.6616058684E+01 -3.0346809028E+01 -3.1409373349E+01  8.8202879775E+01  1.5000000000E+00 0. 9.
       4    1    8    0  103    0  8.6135458894E+01 -9.0873139333E+01 -1.5370188854E+02  1.9825177243E+02  1.5000000000E+00 0. 9.
      -4    1    8    0    0  103  1.3593233568E+00 -2.4277573682E+01  8.7584262680E+00  2.5888383004E+01  1.5000000000E+00 0. 9.
</event>
<event>
    19   275  1.000000E+00  1.068634E+03  7.983333E-03  9.203936E-02
      -2   -1    0    0    0  101  0.0000000000E+00  0.0000000000E+00  8.0926097078E+02  8.0926097078E+02  0.0000000000E+00 0. 9.
       2   -1    0    0  101    0  0.0000000000E+00  0.0000000000E+00 -1.4111544895E+03  1.4111544895E+03  0.0000000000E+00 0. 9.
-2000002    2    1    2    0  102  2.9207383594E+02  2.7202361323E+02 -3.0487828345E+02  1.1112734581E+03  9.9129912700E+02 0. 9.
 2000002    2    1    2  102    0 -2.9207383594E+02 -2.7202361323E+02 -2.9701523528E+02  1.1091420022E+03  9.9129912700E+02 0. 9.
 1000022    1    3    0    0    0 -2.3389238357E+02 -4.3244599837E+01  1.8385339718E+02  3.2712214951E+02  1.2896157000E+02 0. 9.
      -2    1    3    0    0  102  5.2596621951E+02  3.1526821307E+02 -4.8873168063E+02  7.8415130861E+02  3.3000000000E-01 0. 9.
 1000021    2    4    0  102  103 -3.3806257718E+02 -2.2433940723E+02 -1.7650773616E+02  9.7162504297E+02  8.6503512500E+02 0. 9.
       2    1    4    0  103    0  4.5988741232E+01 -4.7684205998E+01 -1.2050749912E+02  1.3751695920E+02  3.3000000000E-01 0. 9.
-1000024    2    7    0    0    0 -2.6537416981E+02 -3.9897608825E+01 -4.2053236026E+02  5.6678281473E+02  2.6903535800E+02 0. 9.
       6    2    7    0  102    0 -9.9766162380E+01 -8.3981611662E+01  1.4284498752E+02  2.5963268036E+02  1.7320000000E+02 0. 9.
      -5    1    7    0    0  103  2.7077755012E+01 -1.0046018675E+02  1.0117963658E+02  1.4520954788E+02  4.8000000000E+00 0. 9.
 1000022    1    9    0    0    0 -1.7361588467E+02 -7.7359194619E+01 -1.7050594668E+02  2.8605993217E+02  1.2896157000E+02 0. 9.
     -24    2    9    0    0    0 -9.1758285139E+01  3.7461585794E+01 -2.5002641358E+02  2.8072288256E+02  8.0431188000E+01 0. 9.
      24    2   10    0    0    0 -9.8669560867E+01 -1.2517187620E+01  3.9469180225E+01  1.3386319292E+02  8.0431188000E+01 0. 9.
       5    1   10    0  102    0 -1.0966015135E+00 -7.1464424042E+01  1.0337580729E+02  1.2576948745E+02  4.8000000000E+00 0. 9.
       3    1   13    0  104    0 -9.7398742349E-01  2.4979450516E+01 -1.1394357556E+02  1.1665466133E+02  5.0000000000E-01 0. 9.
      -4    1   13    0    0  104 -9.0784297716E+01  1.2482135278E+01 -1.3608283803E+02  1.6406822123E+02  1.5000000000E+00 0. 9.
      -3    1   14    0    0  105 -7.1202852322E+01 -4.3812541372E+01  3.8856486496E+01  9.2192524117E+01  5.0000000000E-01 0. 9.
       4    1   14    0  105    0 -2.7466708545E+01  3.1295353752E+01  6.1269372821E-01  4.1670668801E+01  1.5000000000E+00 0. 9.
</event>
<event>
    14   244  1.000000E+00  9.258607E+02  7.970196E-03  9.354601E-02
      21   -1    0    0  101  102  0.0000000000E+00  0.0000000000E+00  1.7008468073E+03  1.7008468073E+03  0.0000000000E+00 0. 9.
      21   -1    0    0  103  101  0.0000000000E+00  0.0000000000E+00 -5.0939902942E+02  5.0939902942E+02  0.0000000000E+00 0. 9.
 1000021    2    1    2  104  102 -1.4625728756E+02  2.9587326765E+02  4.8189610449E+02  1.0437632910E+03  8.6503512500E+02 0. 9.
 1000021    2    1    2  103  104  1.4625728756E+02 -2.9587326765E+02  7.0955167335E+02  1.1664825457E+03  8.6503512500E+02 0. 9.
 1000022    1    3    0    0    0 -2.3090583573E+02  1.3295780841E+01  2.9719048102E+01  2.6647437235E+02  1.2896157000E+02 0. 9.
       2    1    3    0  104    0 -1.8134397158E+01 -1.6853131843E+02  1.1672615027E+02  2.0580759147E+02  3.3000000000E-01 0. 9.
      -2    1    3    0    0  102  1.0278294533E+02  4.5110880524E+02  3.3545090612E+02  5.7148132719E+02  3.3000000000E-01 0. 9.
 1000024    2    4    0    0    0 -2.8886978628E+02 -7.4253068687E+01  4.1431044119E+02  5.7705496893E+02  2.6903535800E+02 0. 9.
      -4    1    4    0    0  104  3.5638313391E+02 -2.1670131531E+02  2.9438759504E+02  5.1052395077E+02  1.5000000000E+00 0. 9.
       3    1    4    0  103    0  7.8743939928E+01 -4.9188836494E+00  8.5363711250E-01  7.8903625950E+01  5.0000000000E-01 0. 9.
 1000022    1    8    0    0    0 -8.8696101563E+01 -1.7166061214E+01  2.6600677855E+02  3.0911545555E+02  1.2896157000E+02 0. 9.
      24    2    8    0    0    0 -2.0017368471E+02 -5.7087007473E+01  1.4830366265E+02  2.6793951338E+02  8.0431188000E+01 0. 9.
      -3    1   12    0    0  105 -1.7791889375E+02 -4.9880262033E+01  1.5746438565E+02  2.4277243674E+02  5.0000000000E-01 0. 9.
       4    1   12    0  105    0 -2.2254790962E+01 -7.2067454398E+00 -9.1607230032E+00  2.5167076639E+01  1.5000000000E+00 0. 9.
</event>
<event>
    12   230  1.000000E+00  2.853782E+02  7.864000E-03  1.080628E-01
       1   -1    0    0  101    0  0.0000000000E+00  0.0000000000E+00  7.1771701435E+01  7.1771701435E+01  0.0000000000E+00 0. 9.
      -2   -1    0    0    0  101  0.0000000000E+00  0.0000000000E+00 -1.1421181793E+03  1.1421181793E+03  0.0000000000E+00 0. 9.
 1000023    2    1    2    0    0 -4.2566330131E+01 -8.5364844075E+01 -5.8390033304E+02  6.4987842276E+02  2.6889276000E+02 0. 9.
-1000024    2    1    2    0    0  4.2566330131E+01  8.5364844075E+01 -4.8644614487E+02  5.6401145802E+02  2.6903535800E+02 0. 9.
 1000022    1    3    0    0    0 -3.8313733347E+01 -7.4959160906E+01 -2.6614192442E+02  3.0748890783E+02  1.2896157000E+02 0. 9.
      25    2    3    0    0    0 -4.2525967837E+00 -1.0405683169E+01 -3.1775840863E+02  3.4238951494E+02  1.2701893900E+02 0. 9.
 1000022    1    4    0    0    0  3.6214449140E+01  2.9135372300E+01 -4.2844083449E+02  4.4983662750E+02  1.2896157000E+02 0. 9.
     -24    2    4    0    0    0  6.3518809912E+00  5.6229471775E+01 -5.8005310373E+01  1.1417483051E+02  8.0431188000E+01 0. 9.
       5    1    6    0  102    0 -1.9521380925E+01 -3.9996691081E+01 -3.0189319170E+02  3.0519396915E+02  4.8000000000E+00 0. 9.
      -5    1    6    0    0  102  1.5268784141E+01  2.9591007912E+01 -1.5865216929E+01  3.7195545790E+01  4.8000000000E+00 0. 9.
       1    1    8    0  103    0  2.9167180106E+01  5.5327977052E+01 -6.5085362839E+01  9.0266952955E+01  3.3000000000E-01 0. 9.
      -2    1    8    0    0  103 -2.2815299115E+01  9.0149472224E-01  7.0800524652E+00  2.3907877558E+01  3.3000000000E-01 0. 9.
</event>
<event>
    21   248  1.000000E+00  8.269174E+02  7.959874E-03  9.476856E-02
       2   -1    0    0  101    0  0.0000000000E+00  0.0000000000E+00  9.3310493295E+02  9.3310493295E+02  0.0000000000E+00 0. 9.
      21   -1    0    0  102  101  0.0000000000E+00  0.0000000000E+00 -1.1040457681E+03  1.1040457681E+03  0.0000000000E+00 0. 9.
 1000002    2    1    2  102    0 -1.6380203578E+02 -3.5953760733E+02 -7.3645080603E+02  1.2967432176E+03  9.9150632100E+02 0. 9.
 1000023    2    1    2    0    0  1.6380203578E+02  3.5953760733E+02  5.6550997090E+02  7.4040748347E+02  2.6889276000E+02 0. 9.
 1000021    2    3    0  102  103 -2.2390398192E+02 -2.3183992589E+02 -6.0384466038E+02  1.1030851670E+03  8.6503512500E+02 0. 9.
       2    1    3    0  103    0  6.0101946136E+01 -1.2769768144E+02 -1.3260614566E+02  1.9365805054E+02  3.3000000000E-01 0. 9.
 1000022    1    4    0    0    0  6.5430546764E+01  2.2828856138E+02  3.3110196783E+02  4.2738322772E+02  1.2896157000E+02 0. 9.
      25    2    4    0    0    0  9.8371489016E+01  1.3124904595E+02  2.3440800308E+02  3.1302425575E+02  1.2701893900E+02 0. 9.
 1000024    2    5    0    0    0 -1.1774406245E+02  1.2026164259E+01 -8.6818479086E+01  3.0647310654E+02  2.6903535800E+02 0. 9.
      -6    2    5    0    0  103 -2.0657501690E+02 -3.0928740193E+02 -5.3618642944E+02  6.7514891818E+02  1.7320000000E+02 0. 9.
       5    1    5    0  102    0  1.0041509743E+02  6.5421311782E+01  1.9160248154E+01  1.2146314230E+02  4.8000000000E+00 0. 9.
       5    1    8    0  104    0  9.1451888965E+01  1.0736169654E+02  2.4720549516E+02  2.8464640998E+02  4.8000000000E+00 0. 9.
      -5    1    8    0    0  104  6.9196000507E+00  2.3887349413E+01 -1.2797492079E+01  2.8377845766E+01  4.8000000000E+00 0. 9.
 1000022    1    9    0    0    0 -8.9603547457E+01 -6.7037800158E+01 -1.8759555069E+01  1.7177272720E+02  1.2896157000E+02 0. 9.
      24    2    9    0    0    0 -2.8140514996E+01  7.9063964418E+01 -6.8058924017E+01  1.3470037934E+02  8.0431188000E+01 0. 9.
     -24    2   10    0    0    0 -7.9088943777E+01 -6.8832954898E+01 -2.3166582208E+02  2.6670445409E+02  8.0431188000E+01 0. 9.
      -5    1   10    0    0  103 -1.2748607312E+02 -2.4045444703E+02 -3.0452060737E+02  4.0844446409E+02  4.8000000000E+00 0. 9.
      -1    1   15    0    0  105 -3.0625671109E+01  8.9472341728E+01 -3.6489177914E+01  1.0136469144E+02  3.3000000000E-01 0. 9.
       2    1   15    0  105    0  2.4851561131E+00 -1.0408377311E+01 -3.1569746103E+01  3.3335687906E+01  3.3000000000E-01 0. 9.
       3    1   16    0  106    0 -3.2086649111E+01  1.3000767477E+01 -9.0456394116E+01  9.6856503357E+01  5.0000000000E-01 0. 9.
      -4    1   16    0    0  106 -4.7002294666E+01 -8.1833722376E+01 -1.4120942796E+02  1.6984795073E+02  1.5000000000E+00 0. 9.
</event>
<event>
    14   254  1.000000E+00  8.218925E+02  7.959318E-03  9.483540E-02
      21   -1    0    0  101  102  0.0000000000E+00  0.0000000000E+00  6.1484525360E+02  6.1484525360E+02  0.0000000000E+00 0. 9.
       2   -1    0    0  102    0  0.0000000000E+00  0.0000000000E+00 -9.6092003657E+02  9.6092003657E+02  0.0000000000E+00 0. 9.
 1000024    2    1    2    0    0  3.6533718557E+02 -1.0728768960E+02 -1.7179129821E+02  4.9686434919E+02  2.6903535800E+02 0. 9.
 1000001    2    1    2  101    0 -3.6533718557E+02  1.0728768960E+02 -1.7428348476E+02  1.0789009410E+03  9.9431916400E+02 0. 9.
 1000022    1    3    0    0    0  1.2328766142E+02 -5.3291678172E+01 -1.4257283920E+02  2.3451642039E+02  1.2896157000E+02 0. 9.
      24    2    3    0    0    0  2.4204952415E+02 -5.3996011427E+01 -2.9218459012E+01  2.6234792879E+02  8.0431188000E+01 0. 9.
-1000024    2    4    0    0    0 -1.7350871477E+02  3.4453752809E+02  2.6821498879E+02  5.4141544717E+02  2.6903535800E+02 0. 9.
       2    1    4    0  101    0 -1.9182847079E+02 -2.3724983849E+02 -4.4249847355E+02  5.3748549382E+02  3.3000000000E-01 0. 9.
      -3    1    6    0    0  103  5.4113536599E+00  7.2581214578E+00  1.1387211358E+01  1.4556155332E+01  5.0000000000E-01 0. 9.
       4    1    6    0  103    0  2.3663817049E+02 -6.1254132884E+01 -4.0605670370E+01  2.4779177346E+02  1.5000000000E+00 0. 9.
 1000022    1    7    0    0    0 -1.9491895088E+02  2.8148569855E+02  2.1097189452E+02  4.2233614895E+02  1.2896157000E+02 0. 9.
     -24    2    7    0    0    0  2.1410236102E+01  6.3051829542E+01  5.7243094272E+01  1.1907929822E+02  8.0431188000E+01 0. 9.
       3    1   12    0  104    0 -1.7858672353E+01 -8.8869536041E+00  1.6262113659E+00  2.0020107042E+01  5.0000000000E-01 0. 9.
      -4    1   12    0    0  104  3.9268908455E+01  7.1938783146E+01  5.5616882906E+01  9.9059191174E+01  1.5000000000E+00 0. 9.
</event>
<event>
    12   226  1.000000E+00  3.169850E+02  7.873363E-03  1.065866E-01
      -1   -1    0    0    0  101  0.0000000000E+00  0.0000000000E+00  9.1965397846E+02  9.1965397846E+02  0.0000000000E+00 0. 9.
       1   -1    0    0  101    0  0.0000000000E+00  0.0000000000E+00 -1.2036984718E+02  1.2036984718E+02  0.0000000000E+00 0. 9.
 1000024    2    1    2    0    0 -4.6029974311E-01  1.6762834496E+02  2.4164509092E+02  3.9858731506E+02  2.6903535800E+02 0. 9.
-1000024    2    1    2    0    0  4.6029974311E-01 -1.6762834496E+02  5.5763904037E+02  6.4143651058E+02  2.6903535800E+02 0. 9.
 1000022    1    3    0    0    0  1.9654295257E+01  1.6931893011E+02  1.0354665642E+02  2.3750407998E+02  1.2896157000E+02 0. 9.
      24    2    3    0    0    0 -2.0114595000E+01 -1.6905851491E+00  1.3809843450E+02  1.6108323508E+02  8.0431188000E+01 0. 9.
 1000022    1    4    0    0    0 -5.4287568016E+01 -1.6934427679E+02  3.8537254964E+02  4.4358506814E+02  1.2896157000E+02 0. 9.
     -24    2    4    0    0    0  5.4747867759E+01  1.7159318272E+00  1.7226649073E+02  1.9785144244E+02  8.0431188000E+01 0. 9.
     -11    1    6    0    0    0 -4.0193696024E+01 -1.8123531819E+01  3.9729812986E+01  5.9350262390E+01  5.1000000000E-04 0. 9.
      12    1    6    0    0    0  2.0079101024E+01  1.6432946670E+01  9.8368621513E+01  1.0173297269E+02  0.0000000000E+00 0. 9.
       3    1    8    0  102    0 -5.9286172629E-01  7.2376932563E-01 -8.6175297553E+00  8.6825771604E+00  5.0000000000E-01 0. 9.
      -4    1    8    0    0  102  5.5340729486E+01  9.9216250157E-01  1.8088402048E+02  1.8916886528E+02  1.5000000000E+00 0. 9.
</event>
<event>
    12   226  1.000000E+00  3.550396E+02  7.883494E-03  1.050378E-01
       2   -1    0    0  101    0  0.0000000000E+00  0.0000000000E+00  8.0979135662E+02  8.0979135662E+02  0.0000000000E+00 0. 9.
      -2   -1    0    0    0  101  0.0000000000E+00  0.0000000000E+00 -2.2359216068E+02  2.2359216068E+02  0.0000000000E+00 0. 9.
 1000024    2    1    2    0    0  6.1772746799E+01 -2.2328733111E+02  8.3015606288E+00  3.5513665573E+02  2.6903535800E+02 0. 9.
-1000024    2    1    2    0    0 -6.1772746799E+01  2.2328733111E+02  5.7789763531E+02  6.7824686157E+02  2.6903535800E+02 0. 9.
 1000022    1    3    0    0    0  6.8508282332E+00 -2.0083019004E+02 -4.3282740258E+01  2.4266062973E+02  1.2896157000E+02 0. 9.
      24    2    3    0    0    0  5.4921918565E+01 -2.2457141064E+01  5.1584300886E+01  1.1247602600E+02  8.0431188000E+01 0. 9.
 1000022    1    4    0    0    0 -1.6770982416E+01  1.1606052493E+02  1.5827400509E+02  2.3544226154E+02  1.2896157000E+02 0. 9.
     -24    2    4    0    0    0 -4.5001764383E+01  1.0722680618E+02  4.1962363022E+02  4.4280460002E+02  8.0431188000E+01 0. 9.
      -1    1    6    0    0  102  4.1865510086E+01 -4.4203773687E+01  6.0263639462E+01  8.5665101903E+01  3.3000000000E-01 0. 9.
       2    1    6    0  102    0  1.3056408479E+01  2.1746632623E+01 -8.6793385752E+00  2.6810924097E+01  3.3000000000E-01 0. 9.
      13    1    8    0    0    0  3.1161593912E+00 -9.6272354221E+00  7.6170554150E+01  7.6839824276E+01  1.0566000000E-01 0. 9.
     -14    1    8    0    0    0 -4.8117923774E+01  1.1685404160E+02  3.4345307607E+02  3.6596477575E+02  0.0000000000E+00 0. 9.
</event>
<event>
    12   226  1.000000E+00  3.392819E+02  7.879434E-03  1.056525E-01
       2   -1    0    0  101    0  0.0000000000E+00  0.0000000000E+00  5.0590343356E+02  5.0590343356E+02  0.0000000000E+00 0. 9.
      -2   -1    0    0    0  101  0.0000000000E+00  0.0000000000E+00 -3.3984219067E+02  3.3984219067E+02  0.0000000000E+00 0. 9.
 1000024    2    1    2    0    0  1.6439225067E+02  1.2532913687E+02  3.2612180095E+02  4.7060350353E+02  2.6903535800E+02 0. 9.
-1000024    2    1    2    0    0 -1.6439225067E+02 -1.2532913687E+02 -1.6006055806E+02  3.7514212070E+02  2.6903535800E+02 0. 9.
 1000022    1    3    0    0    0  1.0039064184E+02  5.5670365083E+00  9.0179256965E+01  1.8674222283E+02  1.2896157000E+02 0. 9.
      24    2    3    0    0    0  6.4001608823E+01  1.1976210036E+02  2.3594254398E+02  2.8386128070E+02  8.0431188000E+01 0. 9.
 1000022    1    4    0    0    0 -4.6704165247E+01  1.3850634879E+01 -4.4669372246E+01  1.4491224411E+02  1.2896157000E+02 0. 9.
     -24    2    4    0    0    0 -1.1768808542E+02 -1.3917977175E+02 -1.1539118581E+02  2.3022987660E+02  8.0431188000E+01 0. 9.
      -1    1    6    0    0  102  3.5344917884E+01  5.4171336882E+00  3.0493186061E+01  4.6995232245E+01  3.3000000000E-01 0. 9.
       2    1    6    0  102    0  2.8656690939E+01  1.1434496667E+02  2.0544935792E+02  2.3686604845E+02  3.3000000000E-01 0. 9.
      15    1    8    0    0    0 -3.7447139414E+01 -2.6603551446E+00 -6.7352255657E+00  3.8182282962E+01  1.7770000000E+00 0. 9.
     -16    1    8    0    0    0 -8.0240946006E+01 -1.3651941660E+02 -1.0865596025E+02  1.9204759364E+02  0.0000000000E+00 0. 9.
</event>
<event>
    22   244  1.000000E+00  8.892164E+02  7.966505E-03  9.397920E-02
      21   -1    0    0  101  102  0.0000000000E+00  0.0000000000E+00  1.5457816442E+03  1.5457816442E+03  0.0000000000E+00 0. 9.
      21   -1    0    0  102  103  0.0000000000E+00  0.0000000000E+00 -1.1100982246E+03  1.1100982246E+03  0.0000000000E+00 0. 9.
 1000021    2    1    2  104  103 -8.1947555011E+01 -1.8895672690E+02 -7.5727456215E+02  1.1679771301E+03  8.6503512500E+02 0. 9.
 1000021    2    1    2  101  104  8.1947555011E+01  1.8895672690E+02  1.1929579817E+03  1.4879027387E+03  8.6503512500E+02 0. 9.
-1000024    2    3    0    0    0 -1.7074676809E+02 -3.2258621625E+02 -4.5322489524E+02  6.4109995730E+02  2.6903535800E+02 0. 9.
       6    2    3    0  104    0  2.0816740378E+02  1.4646164619E+02 -1.9365548129E+02  3.6371055419E+02  1.7320000000E+02 0. 9.
      -5    1    3    0    0  103 -1.1936819070E+02 -1.2832156833E+01 -1.1039418562E+02  1.6316661858E+02  4.8000000000E+00 0. 9.
 1000024    2    4    0    0    0  4.6242418876E+01 -2.3989900725E+02  6.4666649985E+02  7.4178668151E+02  2.6903535800E+02 0. 9.
      -2    1    4    0    0  104  1.5107671162E+01  2.4416089182E+02  1.0296620059E+02  2.6541463823E+02  3.3000000000E-01 0. 9.
       1    1    4    0  101    0  2.0597464973E+01  1.8469484233E+02  4.4332528124E+02  4.8070141901E+02  3.3000000000E-01 0. 9.
 1000022    1    5    0    0    0 -2.1193758323E+00 -1.3195521234E+02 -2.1511468445E+02  2.8341150969E+02  1.2896157000E+02 0. 9.
     -24    2    5    0    0    0 -1.6862739226E+02 -1.9063100391E+02 -2.3811021078E+02  3.5768844761E+02  8.0431188000E+01 0. 9.
      24    2    6    0    0    0  5.8904595516E+01  1.1739201066E+02 -7.8255291394E+01  1.7275329859E+02  8.0431188000E+01 0. 9.
       5    1    6    0  104    0  1.4926280826E+02  2.9069635527E+01 -1.1540018989E+02  1.9095725560E+02  4.8000000000E+00 0. 9.
 1000022    1    8    0    0    0 -1.6466897912E+01 -3.9020416034E+01  2.0302838370E+02  2.4422400111E+02  1.2896157000E+02 0. 9.
      24    2    8    0    0    0  6.2709316788E+01 -2.0087859121E+02  4.4363811615E+02  4.9756268040E+02  8.0431188000E+01 0. 9.
      15    1   12    0    0    0 -5.1751386513E+01 -1.1775937180E+02 -1.2639994473E+02  1.8034849434E+02  1.7770000000E+00 0. 9.
     -16    1   12    0    0    0 -1.1687600575E+02 -7.2871632110E+01 -1.1171026605E+02  1.7733995327E+02  0.0000000000E+00 0. 9.
     -11    1   13    0    0    0  2.0560316407E+01  9.0934225181E+01 -8.4406441800E+01  1.2576250370E+02  5.1000000000E-04 0. 9.
      12    1   13    0    0    0  3.8344279109E+01  2.6457785480E+01  6.1511504065E+00  4.6990794888E+01  0.0000000000E+00 0. 9.
      -1    1   16    0    0  105 -1.1460912218E+01 -5.5089509278E+01  7.0922251337E+01  9.0533315282E+01  3.3000000000E-01 0. 9.
       2    1   16    0  105    0  7.4170229006E+01 -1.4578908194E+02  3.7271586481E+02  4.0702936512E+02  3.3000000000E-01 0. 9.
</event>
<event>
    12   230  1.000000E+00  2.707262E+02  7.859310E-03  1.088191E-01
       2   -1    0    0  101    0  0.0000000000E+00  0.0000000000E+00  1.1002831550E+02  1.1002831550E+02  0.0000000000E+00 0. 9.
      -1   -1    0    0    0  101  0.0000000000E+00  0.0000000000E+00 -6.6770735772E+02  6.6770735772E+02  0.0000000000E+00 0. 9.
 1000024    2    1    2    0    0 -1.1695817535E+01 -2.8534443198E+01 -2.5998510597E+02  3.7539750369E+02  2.6903535800E+02 0. 9.
 1000023    2    1    2    0    0  1.1695817535E+01  2.8534443198E+01 -2.9769393626E+02  4.0233816953E+02  2.6889276000E+02 0. 9.
 1000022    1    3    0    0    0 -4.0276782325E+01  5.9375303358E+01 -1.5530285358E+02  2.1423750537E+02  1.2896157000E+02 0. 9.
      24    2    3    0    0    0  2.8580964789E+01 -8.7909746556E+01 -1.0468225239E+02  1.6115999831E+02  8.0431188000E+01 0. 9.
 1000022    1    4    0    0    0 -3.0574727469E+01  5.6248387099E+00 -1.2161215205E+02  1.7996403761E+02  1.2896157000E+02 0. 9.
      25    2    4    0    0    0  4.2270545004E+01  2.2909604488E+01 -1.7608178420E+02  2.2237413192E+02  1.2701893900E+02 0. 9.
     -11    1    6    0    0    0 -1.9388453674E+01 -1.6484840817E+01 -5.7852918037E+01  6.3203023964E+01  5.1000000000E-04 0. 9.
      12    1    6    0    0    0  4.7969418464E+01 -7.1424905739E+01 -4.6829334351E+01  9.7956974348E+01  0.0000000000E+00 0. 9.
       5    1    8    0  102    0  8.5229268363E+01  3.2821459371E+01 -1.1734201604E+02  1.4877320024E+02  4.8000000000E+00 0. 9.
      -5    1    8    0    0  102 -4.2958723360E+01 -9.9118548828E+00 -5.8739768165E+01  7.3600931679E+01  4.8000000000E+00 0. 9.
</event>
<event>
    12   226  1.000000E+00  2.768239E+02  7.861291E-03  1.084982E-01
      -1   -1    0    0    0  101  0.0000000000E+00  0.0000000000E+00  1.2038145543E+02  1.2038145543E+02  0.0000000000E+00 0. 9.
       1   -1    0    0  101    0  0.0000000000E+00  0.0000000000E+00 -6.3669743467E+02  6.3669743467E+02  0.0000000000E+00 0. 9.
 1000024    2    1    2    0    0 -7.1778283729E+00 -6.4806826476E+01 -2.5284587682E+02  3.7491666708E+02  2.6903535800E+02 0. 9.
-1000024    2    1    2    0    0  7.1778283729E+00  6.4806826476E+01 -2.6347010242E+02  3.8216222302E+02  2.6903535800E+02 0. 9.
 1000022    1    3    0    0    0 -9.5750486228E-01  4.8108638689E+01 -1.1576741210E+02  1.7985699368E+02  1.2896157000E+02 0. 9.
      24    2    3    0    0    0 -6.2203235106E+00 -1.1291546516E+02 -1.3707846472E+02  1.9505967341E+02  8.0431188000E+01 0. 9.
 1000022    1    4    0    0    0 -4.0508485951E+01 -2.6718469209E+01 -8.8818720322E+01  1.6393494334E+02  1.2896157000E+02 0. 9.
     -24    2    4    0    0    0  4.7686314324E+01  9.1525295685E+01 -1.7465138210E+02  2.1822727968E+02  8.0431188000E+01 0. 9.
     -13    1    6    0    0    0  2.5818569984E+01 -9.5771886345E+01 -8.0165511109E+01  1.2753577187E+02  1.0566000000E-01 0. 9.
      14    1    6    0    0    0 -3.2038893495E+01 -1.7143578820E+01 -5.6912953607E+01  6.7523901542E+01  0.0000000000E+00 0. 9.
       3    1    8    0  102    0  6.8766501700E+01  5.2710414656E+01 -1.1631686107E+02  1.4504165519E+02  5.0000000000E-01 0. 9.
      -4    1    8    0    0  102 -2.1080187376E+01  3.8814881029E+01 -5.8334521022E+01  7.3185624490E+01  1.5000000000E+00 0. 9.
</event>
<event>
    17   258  1.000000E+00  1.015645E+03  7.978670E-03  9.256806E-02
      -1   -1    0    0    0  101  0.0000000000E+00  0.0000000000E+00  7.3917097748E+02  7.3917097748E+02  0.0000000000E+00 0. 9.
      21   -1    0    0  101  102  0.0000000000E+00  0.0000000000E+00 -1.4680911064E+03  1.4680911064E+03  0.0000000000E+00 0. 9.
-1000001    2    1    2    0  103 -1.8632051655E+02 -3.5824741977E+02 -6.3750015234E+02  1.2482522152E+03  9.9431916400E+02 0. 9.
 1000021    2    1    2  103  102  1.8632051655E+02  3.5824741977E+02 -9.1419976619E+01  9.5900986870E+02  8.6503512500E+02 0. 9.
 1000023    2    3    0    0    0 -1.0565599082E+02 -3.0496690549E+02  1.5657371756E+02  4.4831534354E+02  2.6889276000E+02 0. 9.
      -1    1    3    0    0  103 -8.0664525738E+01 -5.3280514279E+01 -7.9407386990E+02  7.9993687168E+02  3.3000000000E-01 0. 9.
 1000024    2    4    0    0    0  1.0624539220E+02  1.1647942318E+02  1.3857890401E+02  3.4123258326E+02  2.6903535800E+02 0. 9.
      -4    1    4    0    0  102 -9.4540600836E+01 -1.3044569343E+02 -8.2314084543E+01  1.8091949220E+02  1.5000000000E+00 0. 9.
       3    1    4    0  103    0  1.7461572519E+02  3.7221369002E+02 -1.4768479609E+02  4.3685779325E+02  5.0000000000E-01 0. 9.
 1000022    1    5    0    0    0 -7.2285511800E+01 -2.1133996137E+02  1.1038397155E+02  2.8054497358E+02  1.2896157000E+02 0. 9.
      25    2    5    0    0    0 -3.3370479016E+01 -9.3626944124E+01  4.6189746010E+01  1.6777036996E+02  1.2701893900E+02 0. 9.
 1000022    1    7    0    0    0  9.5634350053E+01 -3.6570674616E+00  3.8697586954E+01  1.6519047438E+02  1.2896157000E+02 0. 9.
      24    2    7    0    0    0  1.0611042146E+01  1.2013649065E+02  9.9881317059E+01  1.7604210888E+02  8.0431188000E+01 0. 9.
       5    1   11    0  104    0 -6.3353841150E+00 -2.1621813533E+01  8.0268427232E+01  8.3508684115E+01  4.8000000000E+00 0. 9.
      -5    1   11    0    0  104 -2.7035094901E+01 -7.2005130591E+01 -3.4078681222E+01  8.4261685846E+01  4.8000000000E+00 0. 9.
     -13    1   13    0    0    0  2.1861548426E+01  3.8692633788E+01  7.9905824891E+01  9.1433031365E+01  1.0566000000E-01 0. 9.
      14    1   13    0    0    0 -1.1250506280E+01  8.1443856858E+01  1.9975492168E+01  8.4609077520E+01  0.0000000000E+00 0. 9.
</event>
<event>
    12   230  1.000000E+00  2.958483E+02  7.867209E-03  1.075518E-01
       2   -1    0    0  101    0  0.0000000000E+00  0.0000000000E+00  8.2458270965E+02  8.2458270965E+02  0.0000000000E+00 0. 9.
      -1   -1    0    0    0  101  0.0000000000E+00  0.0000000000E+00 -1.3073011993E+02  1.3073011993E+02  0.0000000000E+00 0. 9.
 1000024    2    1    2    0    0 -1.0366432273E+02 -6.6620108335E+01  1.3985244465E+02  3.2729690003E+02  2.6903535800E+02 0. 9.
 1000023    2    1    2    0    0  1.0366432273E+02  6.6620108335E+01  5.5400014507E+02  6.2801592954E+02  2.6889276000E+02 0. 9.
 1000022    1    3    0    0    0 -6.7263652795E+01 -1.2113986364E+02  6.8205681126E+01  2.0120230373E+02  1.2896157000E+02 0. 9.
      24    2    3    0    0    0 -3.6400669930E+01  5.4519755307E+01  7.1646763527E+01  1.2609459630E+02  8.0431188000E+01 0. 9.
 1000022    1    4    0    0    0  8.4815304892E+01  2.8153584487E+01  2.4166620113E+02  2.8813173995E+02  1.2896157000E+02 0. 9.
      25    2    4    0    0    0  1.8849017834E+01  3.8466523847E+01  3.1233394394E+02  3.3988418959E+02  1.2701893900E+02 0. 9.
      -1    1    6    0    0  102 -2.0616908122E+01  3.4584922148E+01 -9.2341398073E+00  4.1310434257E+01  3.3000000000E-01 0. 9.
       2    1    6    0  102    0 -1.5783761808E+01  1.9934833159E+01  8.0880903335E+01  8.4784162048E+01  3.3000000000E-01 0. 9.
       5    1    8    0  103    0  3.7711071251E+01 -3.3095118204E+01  1.9223675627E+02  1.9873455211E+02  4.8000000000E+00 0. 9.
      -5    1    8    0    0  103 -1.8862053418E+01  7.1561642051E+01  1.2009718768E+02  1.4114963748E+02  4.8000000000E+00 0. 9.
</event>
<event>
    12   226  1.000000E+00  3.450879E+02  7.880951E-03  1.054219E-01
      -2   -1    0    0    0  101  0.0000000000E+00  0.0000000000E+00  1.0510186105E+02  1.0510186105E+02  0.0000000000E+00 0. 9.
       2   -1    0    0  101    0  0.0000000000E+00  0.0000000000E+00 -1.1416677449E+03  1.1416677449E+03  0.0000000000E+00 0. 9.
-1000024    2    1    2    0    0  1.7760883001E+02  1.2312903391E+02 -5.7244303508E+02  6.6841357538E+02  2.6903535800E+02 0. 9.
 1000024    2    1    2    0    0 -1.7760883001E+02 -1.2312903391E+02 -4.6412284880E+02  5.7835603059E+02  2.6903535800E+02 0. 9.
 1000022    1    3    0    0    0  1.0639593933E+02  1.6007629217E+02 -3.8048292421E+02  4.4535699991E+02  1.2896157000E+02 0. 9.
     -24    2    3    0    0    0  7.1212890680E+01 -3.6947258254E+01 -1.9196011087E+02  2.2305657547E+02  8.0431188000E+01 0. 9.
 1000022    1    4    0    0    0 -6.3731233530E+01  1.2521850100E+01 -1.4508046948E+02  2.0468975553E+02  1.2896157000E+02 0. 9.
      24    2    4    0    0    0 -1.1387759648E+02 -1.3565088401E+02 -3.1904237932E+02  3.7366627507E+02  8.0431188000E+01 0. 9.
      13    1    6    0    0    0  2.4544871323E+00 -3.2661643441E+01 -1.1587966132E+02  1.2041974311E+02  1.0566000000E-01 0. 9.
     -14    1    6    0    0    0  6.8758403548E+01 -4.2856148134E+00 -7.6080449552E+01  1.0263683236E+02  0.0000000000E+00 0. 9.
     -15    1    8    0    0    0  6.1553552292E+00 -1.8161523219E+01 -7.4833679110E+01  7.7272029751E+01  1.7770000000E+00 0. 9.
      16    1    8    0    0    0 -1.2003295171E+02 -1.1748936079E+02 -2.4420870021E+02  2.9639424531E+02  0.0000000000E+00 0. 9.
</event>
<event>
    12   230  1.000000E+00  3.473848E+02  7.881544E-03  1.053320E-01
       1   -1    0    0  101    0  0.0000000000E+00  0.0000000000E+00  7.5387213960E+02  7.5387213960E+02  0.0000000000E+00 0. 9.
      -2   -1    0    0    0  101  0.0000000000E+00  0.0000000000E+00 -1.6009387630E+02  1.6009387630E+02  0.0000000000E+00 0. 9.
 1000023    2    1    2    0    0 -2.0293740304E+02 -8.4563399515E+01  2.9190468589E+02  4.5370278831E+02  2.6889276000E+02 0. 9.
-1000024    2    1    2    0    0  2.0293740304E+02  8.4563399515E+01  3.0187357741E+02  4.6026322760E+02  2.6903535800E+02 0. 9.
 1000022    1    3    0    0    0 -6.3481487284E+01 -5.9035209531E+01  1.5288961002E+02  2.1799397831E+02  1.2896157000E+02 0. 9.
      25    2    3    0    0    0 -1.3945591576E+02 -2.5528189984E+01  1.3901507587E+02  2.3570880999E+02  1.2701893900E+02 0. 9.
 1000022    1    4    0    0    0  2.7252011409E+01  3.6536082886E+01  6.6850199312E+01  1.5224189030E+02  1.2896157000E+02 0. 9.
     -24    2    4    0    0    0  1.7568539163E+02  4.8027316629E+01  2.3502337810E+02  3.0802133730E+02  8.0431188000E+01 0. 9.
      21    1    6    0  102  103 -7.0774838393E+01  5.0735958701E+01  5.4244713093E+01  1.0259485442E+02  0.0000000000E+00 0. 9.
      21    1    6    0  103  102 -6.8681077365E+01 -7.6264148685E+01  8.4770362778E+01  1.3311395557E+02  0.0000000000E+00 0. 9.
       3    1    8    0  104    0  5.7459727485E+01  1.2289417827E+00  2.5383943187E+01  6.2830925127E+01  5.0000000000E-01 0. 9.
      -4    1    8    0    0  104  1.1822566415E+02  4.6798374846E+01  2.0963943491E+02  2.4519041217E+02  1.5000000000E+00 0. 9.
</event>
<event>
    17   258  1.000000E+00  9.915792E+02  7.976473E-03  9.281947E-02
      21   -1    0    0  101  102  0.0000000000E+00  0.0000000000E+00  1.0454862007E+03  1.0454862007E+03  0.0000000000E+00 0. 9.
       2   -1    0    0  102    0  0.0000000000E+00  0.0000000000E+00 -9.7940774880E+02  9.7940774880E+02  0.0000000000E+00 0. 9.
 1000021    2    1    2  101  103  3.0260020083E+02 -1.6117409147E+02  2.4124063820E+02  9.6126311815E+02  8.6503512500E+02 0. 9.
 1000002    2    1    2  103    0 -3.0260020083E+02  1.6117409147E+02 -1.7516218630E+02  1.0636308313E+03  9.9150632100E+02 0. 9.
-1000024    2    3    0    0    0  5.5600711818E+01 -2.4174604328E+02  6.6190391795E+01  3.7187871735E+02  2.6903535800E+02 0. 9.
       4    1    3    0  101    0 -5.4764832847E+01  2.0436149818E+02  1.5560560555E+02  2.6263694206E+02  1.5000000000E+00 0. 9.
      -3    1    3    0    0  103  3.0176432186E+02 -1.2378954637E+02  1.9444640864E+01  3.2674745874E+02  5.0000000000E-01 0. 9.
 1000024    2    4    0    0    0 -5.0041124823E+02 -2.1075437757E+02  3.6569324306E+00  6.0598863193E+02  2.6903535800E+02 0. 9.
       1    1    4    0  103    0  1.9781104741E+02  3.7192846904E+02 -1.7881911873E+02  4.5764219941E+02  3.3000000000E-01 0. 9.
 1000022    1    5    0    0    0 -4.0364949403E+01 -7.4687039830E+01  5.0785943557E+01  1.6253547815E+02  1.2896157000E+02 0. 9.
     -24    2    5    0    0    0  9.5965661222E+01 -1.6705900345E+02  1.5404448238E+01  2.0934323920E+02  8.0431188000E+01 0. 9.
 1000022    1    8    0    0    0 -3.9990545746E+02 -2.0602820908E+02  4.6391304732E+01  4.7027145090E+02  1.2896157000E+02 0. 9.
      24    2    8    0    0    0 -1.0050579078E+02 -4.7261684887E+00 -4.2734372301E+01  1.3571718103E+02  8.0431188000E+01 0. 9.
      13    1   11    0    0    0  4.4122132535E+00 -7.2891041033E+00 -2.0079784657E+01  2.1813014013E+01  1.0566000000E-01 0. 9.
     -14    1   11    0    0    0  9.1553447968E+01 -1.5976989935E+02  3.5484232895E+01  1.8753022518E+02  0.0000000000E+00 0. 9.
     -15    1   13    0    0    0 -1.9659949768E+01 -2.3085079017E+01 -4.3202815480E+01  5.2811698443E+01  1.7770000000E+00 0. 9.
      16    1   13    0    0    0 -8.0845841008E+01  1.8358910528E+01  4.6844317891E-01  8.2905482588E+01  0.0000000000E+00 0. 9.
</event>
<event>
    12   230  1.000000E+00  3.557250E+02  7.883666E-03  1.050118E-01
       1   -1    0    0  101    0  0.0000000000E+00  0.0000000000E+00  8.6363440142E+02  8.6363440142E+02  0.0000000000E+00 0. 9.
      -2   -1    0    0    0  101  0.0000000000E+00  0.0000000000E+00 -2.4966049154E+02  2.4966049154E+02  0.0000000000E+00 0. 9.
 1000023    2    1    2    0    0  2.3201909304E+02 -1.9124643398E+01 -5.0822380012E+01  3.5928379063E+02  2.6889276000E+02 0. 9.
-1000024    2    1    2    0    0 -2.3201909304E+02  1.9124643398E+01  6.6479628990E+02  7.5401110233E+02  2.6903535800E+02 0. 9.
 1000022    1    3    0    0    0  8.8439718235E+01  2.2781932664E+01 -6.7498794283E+00  1.5816841539E+02  1.2896157000E+02 0. 9.
      25    2    3    0    0    0  1.4357937481E+02 -4.1906576063E+01 -4.4072500584E+01  2.0111537524E+02  1.2701893900E+02 0. 9.
 1000022    1    4    0    0    0 -7.8763125630E+01  5.0425071262E+01  4.4405323790E+02  4.7176337543E+02  1.2896157000E+02 0. 9.
     -24    2    4    0    0    0 -1.5325596741E+02 -3.1300427863E+01  2.2074305200E+02  2.8224772690E+02  8.0431188000E+01 0. 9.
       5    1    6    0  102    0  8.7037644594E+01  2.3264861096E+01  2.1370385347E+01  9.2717521042E+01  4.8000000000E+00 0. 9.
      -5    1    6    0    0  102  5.6541730214E+01 -6.5171437159E+01 -6.5442885930E+01  1.0839785420E+02  4.8000000000E+00 0. 9.
       1    1    8    0  103    0 -1.3172539812E+02 -5.5957091525E+01  1.8175387186E+02  2.3133818413E+02  3.3000000000E-01 0. 9.
      -2    1    8    0    0  103 -2.1530569295E+01  2.4656663662E+01  3.8989180142E+01  5.0909542772E+01  3.3000000000E-01 0. 9.
</event>
<event>
    21   258  1.000000E+00  9.594085E+02  7.973453E-03  9.316749E-02
      21   -1    0    0  101  102  0.0000000000E+00  0.0000000000E+00  8.4145720615E+02  8.4145720615E+02  0.0000000000E+00 0. 9.
       2   -1    0    0  102    0  0.0000000000E+00  0.0000000000E+00 -1.5325957796E+03  1.5325957796E+03  0.0000000000E+00 0. 9.
 1000021    2    1    2  101  103  2.3400210749E+02 -4.7315640969E+00  3.0753876189E+02  9.4744141326E+02  8.6503512500E+02 0. 9.
 1000002    2    1    2  103    0 -2.3400210749E+02  4.7315640969E+00 -9.9867733532E+02  1.4266115725E+03  9.9150632100E+02 0. 9.
-1000024    2    3    0    0    0 -2.1105509992E+02 -8.3760445878E+01  2.7773136307E+02  4.4841364986E+02  2.6903535800E+02 0. 9.
       6    2    3    0  101    0  4.1430867004E+02  6.0275341870E+01  5.2617257385E+01  4.5612674410E+02  1.7320000000E+02 0. 9.
      -5    1    3    0    0  103  3.0748537367E+01  1.8753539912E+01 -2.2809858563E+01  4.2901019301E+01  4.8000000000E+00 0. 9.
 1000024    2    4    0    0    0  2.9728580457E+02 -1.4302305561E+02 -2.3997682985E+02  4.8867509324E+02  2.6903535800E+02 0. 9.
       1    1    4    0  103    0 -5.3128791206E+02  1.4775461970E+02 -7.5870050547E+02  9.3793647921E+02  3.3000000000E-01 0. 9.
 1000022    1    5    0    0    0 -2.1112197307E+02 -9.4028655817E+01  1.7392848310E+02  3.1669556264E+02  1.2896157000E+02 0. 9.
     -24    2    5    0    0    0  6.6873152214E-02  1.0268209938E+01  1.0380287997E+02  1.3171808722E+02  8.0431188000E+01 0. 9.
      24    2    6    0    0    0  1.3672086765E+02  6.4844033003E+01 -9.3782959839E+00  1.7162305412E+02  8.0431188000E+01 0. 9.
       5    1    6    0  101    0  2.7758780238E+02 -4.5686911336E+00  6.1995553369E+01  2.8450368997E+02  4.8000000000E+00 0. 9.
 1000022    1    8    0    0    0  1.6186805260E+02 -1.0580292912E+02 -2.2926544508E+02  3.2648010216E+02  1.2896157000E+02 0. 9.
      24    2    8    0    0    0  1.3541775197E+02 -3.7220126485E+01 -1.0711384773E+01  1.6219499108E+02  8.0431188000E+01 0. 9.
       3    1   11    0  104    0  3.7290674432E+01  1.2232076622E+01  7.4773245808E+01  8.4448246795E+01  5.0000000000E-01 0. 9.
      -4    1   11    0    0  104 -3.7223801280E+01 -1.9638666840E+00  2.9029634161E+01  4.7269840423E+01  1.5000000000E+00 0. 9.
      -1    1   12    0    0  105  9.9402235447E+01  5.6155660777E+01 -4.1647556167E+01  1.2152732402E+02  3.3000000000E-01 0. 9.
       2    1   12    0  105    0  3.7318632207E+01  8.6883722264E+00  3.2269260183E+01  5.0095730103E+01  3.3000000000E-01 0. 9.
      -3    1   15    0    0  106  4.6832473358E+01  1.4949869106E+01  2.2610275192E+01  5.4113341158E+01  5.0000000000E-01 0. 9.
       4    1   15    0  106    0  8.8585278615E+01 -5.2169995591E+01 -3.3321659964E+01  1.0808164992E+02  1.5000000000E+00 0. 9.
</event>
<event>
    19   273  1.000000E+00  1.270074E+03  7.999210E-03  9.028826E-02
       1   -1    0    0  101    0  0.0000000000E+00  0.0000000000E+00  9.6019536112E+02  9.6019536112E+02  0.0000000000E+00 0. 9.
       2   -1    0    0  102    0  0.0000000000E+00  0.0000000000E+00 -1.6809614702E+03  1.6809614702E+03  0.0000000000E+00 0. 9.
 2000001    2    1    2  102    0 -3.9158351456E+02 -6.9026687396E+02 -3.9266287763E+02  1.3294623085E+03  9.9170554500E+02 0. 9.
 1000002    2    1    2  101    0  3.9158351456E+02  6.9026687396E+02 -3.2810323142E+02  1.3116945228E+03  9.9150632100E+02 0. 9.
 1000021    2    3    0  102  103 -3.4445462001E+02 -6.1607654002E+02 -2.2318792375E+02  1.1385507917E+03  8.6503512500E+02 0. 9.
       1    1    3    0  103    0 -4.7128894551E+01 -7.4190333949E+01 -1.6947495388E+02  1.9091151680E+02  3.3000000000E-01 0. 9.
 1000024    2    4    0    0    0  5.3906536999E+02  1.7881299505E+02 -4.4076886691E+02  7.6760847976E+02  2.6903535800E+02 0. 9.
       1    1    4    0  101    0 -1.4748185542E+02  5.1145387892E+02  1.1266563549E+02  5.4408604307E+02  3.3000000000E-01 0. 9.
 1000023    2    5    0    0    0  2.3879896597E+01 -5.4249913050E+02 -1.5602838187E+02  6.2571856963E+02  2.6889276000E+02 0. 9.
       4    1    5    0  102    0 -3.4540818839E+02 -3.3209520514E+01  8.2039456377E+01  3.5657034546E+02  1.5000000000E+00 0. 9.
      -4    1    5    0    0  103 -2.2926328217E+01 -4.0367889005E+01 -1.4919899826E+02  1.5626187657E+02  1.5000000000E+00 0. 9.
 1000022    1    7    0    0    0  2.5642733226E+02  1.7129753102E+02 -2.2409340075E+02  4.0242609217E+02  1.2896157000E+02 0. 9.
      24    2    7    0    0    0  2.8263803772E+02  7.5154640225E+00 -2.1667546616E+02  3.6518238759E+02  8.0431188000E+01 0. 9.
 1000022    1    9    0    0    0  3.9445101164E+01 -2.5155940831E+02 -4.4480926873E+01  2.8887314051E+02  1.2896157000E+02 0. 9.
      25    2    9    0    0    0 -1.5565204567E+01 -2.9093972219E+02 -1.1154745499E+02  3.3684542912E+02  1.2701893900E+02 0. 9.
      -3    1   13    0    0  104  5.6252688672E+01 -2.8483776649E+01 -3.1426862755E+01  7.0452737474E+01  5.0000000000E-01 0. 9.
       4    1   13    0  104    0  2.2638534905E+02  3.5999240672E+01 -1.8524860340E+02  2.9472965012E+02  1.5000000000E+00 0. 9.
       5    1   15    0  105    0  2.8523246667E+01 -1.7876691673E+02 -1.1784522646E+02  2.1605953697E+02  4.8000000000E+00 0. 9.
      -5    1   15    0    0  105 -4.4088451234E+01 -1.1217280546E+02  6.2977714675E+00  1.2078589215E+02  4.8000000000E+00 0. 9.
</event>
<event>
    14   244  1.000000E+00  9.553504E+02  7.973065E-03  9.321241E-02
      21   -1    0    0  101  102  0.0000000000E+00  0.0000000000E+00  6.4968753587E+02  6.4968753587E+02  0.0000000000E+00 0. 9.
      21   -1    0    0  103  101  0.0000000000E+00  0.0000000000E+00 -1.5628719152E+03  1.5628719152E+03  0.0000000000E+00 0. 9.
 1000021    2    1    2  103  104 -5.7717808098E+01 -4.0134435415E+02 -1.0478688687E+02  9.6107996292E+02  8.6503512500E+02 0. 9.
 1000021    2    1    2  104  102  5.7717808098E+01  4.0134435415E+02 -8.0839749248E+02  1.2514794882E+03  8.6503512500E+02 0. 9.
 1000024    2    3    0    0    0  1.4281960654E+02  1.3949280579E+02 -1.1897594301E+02  3.5551509356E+02  2.6903535800E+02 0. 9.
      -4    1    3    0    0  104 -9.4663332662E+00  9.9451353891E+00 -1.6811845697E+01  2.1757879932E+01  1.5000000000E+00 0. 9.
       3    1    3    0  103    0 -1.9107108137E+02 -5.5078229533E+02  3.1000901836E+01  5.8380698943E+02  5.0000000000E-01 0. 9.
 1000022    1    4    0    0    0 -1.5934601807E+02  3.8027630508E+02 -3.0663448700E+01  4.3309647343E+02  1.2896157000E+02 0. 9.
       3    1    4    0  104    0  7.9976927851E+00 -1.0932746717E+01 -2.4246143339E+02  2.4284003937E+02  5.0000000000E-01 0. 9.
      -3    1    4    0    0  102  2.0906613338E+02  3.2000795789E+01 -5.3527261039E+02  5.7554297536E+02  5.0000000000E-01 0. 9.
 1000022    1    5    0    0    0  1.1502306551E+01  1.1531780092E+02 -2.9779641235E+01  1.7592160707E+02  1.2896157000E+02 0. 9.
      24    2    5    0    0    0  1.3131729999E+02  2.4175004875E+01 -8.9196301773E+01  1.7959348649E+02  8.0431188000E+01 0. 9.
      -1    1   12    0    0  105  4.1651092573E+01 -6.6850107802E+00  8.9446049840E+00  4.3123285357E+01  3.3000000000E-01 0. 9.
       2    1   12    0  105    0  8.9666207416E+01  3.0860015655E+01 -9.8140906757E+01  1.3647020113E+02  3.3000000000E-01 0. 9.
</event>
<event>
    12   230  1.000000E+00  5.067824E+02  7.915462E-03  1.004562E-01
      -1   -1    0    0    0  101  0.0000000000E+00  0.0000000000E+00  2.4360867918E+02  2.4360867918E+02  0.0000000000E+00 0. 9.
       2   -1    0    0  101    0  0.0000000000E+00  0.0000000000E+00 -1.0979488561E+03  1.0979488561E+03  0.0000000000E+00 0. 9.
 1000023    2    1    2    0    0  2.7131110757E+02  3.3298200757E+02 -2.9334361439E+02  5.8552585506E+02  2.6889276000E+02 0. 9.
 1000024    2    1    2    0    0 -2.7131110757E+02 -3.3298200757E+02 -5.6099656252E+02  7.5603168020E+02  2.6903535800E+02 0. 9.
 1000022    1    3    0    0    0  1.2842535308E+02  2.0128470540E+02 -1.9083645133E+02  3.3175026999E+02  1.2896157000E+02 0. 9.
      25    2    3    0    0    0  1.4288575449E+02  1.3169730217E+02 -1.0250716306E+02  2.5377558507E+02  1.2701893900E+02 0. 9.
 1000022    1    4    0    0    0 -1.3886205519E+02 -1.6192719910E+02 -4.1127375062E+02  4.8091607653E+02  1.2896157000E+02 0. 9.
      24    2    4    0    0    0 -1.3244905238E+02 -1.7105480847E+02 -1.4972281190E+02  2.7511560367E+02  8.0431188000E+01 0. 9.
       5    1    6    0  102    0  6.4385308327E+00 -2.2414824905E+01 -2.2883331112E+01  3.3023717198E+01  4.8000000000E+00 0. 9.
      -5    1    6    0    0  102  1.3644722366E+02  1.5411212708E+02 -7.9623831946E+01  2.2075186787E+02  4.8000000000E+00 0. 9.
     -11    1    8    0    0    0  3.5998531374E+00  6.0678627065E+00 -7.6912128407E+00  1.0437080801E+01  5.1000000000E-04 0. 9.
      12    1    8    0    0    0 -1.3604890551E+02 -1.7712267118E+02 -1.4203159906E+02  2.6467852287E+02  0.0000000000E+00 0. 9.
</event>
<event>
     9   259  1.000000E+00  9.454941E+02  7.972116E-03  9.332248E-02
      21   -1    0    0  101  102  0.0000000000E+00  0.0000000000E+00  5.8031528952E+02  5.8031528952E+02  0.0000000000E+00 0. 9.
       2   -1    0    0  102    0  0.0000000000E+00  0.0000000000E+00 -1.5820902519E+03  1.5820902519E+03  0.0000000000E+00 0. 9.
 1000021    2    1    2  101  103  4.5323752095E+01 -1.6255758456E+02 -2.8046785939E+02  9.2489307406E+02  8.6503512500E+02 0. 9.
 2000002    2    1    2  103    0 -4.5323752095E+01  1.6255758456E+02 -7.2130710295E+02  1.2375124673E+03  9.9129912700E+02 0. 9.
 1000022    1    3    0    0    0  1.3939119665E+02 -2.2171096085E+02 -4.5799858072E+02  5.4312009937E+02  1.2896157000E+02 0. 9.
       4    1    3    0  101    0 -9.0125734365E+01  1.7026998303E+02  1.8912656352E+02  2.6997337303E+02  1.5000000000E+00 0. 9.
      -4    1    3    0    0  103 -3.9417101896E+00 -1.1111660674E+02 -1.1595842193E+01  1.1179960165E+02  1.5000000000E+00 0. 9.
 1000022    1    4    0    0    0  2.7750915966E+02 -3.0824503700E+02 -2.9534898983E+02  5.2525084374E+02  1.2896157000E+02 0. 9.
       2    1    4    0  103    0 -3.2283291175E+02  4.7080262156E+02 -4.2595811312E+02  7.1226162357E+02  3.3000000000E-01 0. 9.
</event>
<event>
    26   272  1.000000E+00  1.091651E+03  7.985289E-03  9.181961E-02
       2   -1    0    0  101    0  0.0000000000E+00  0.0000000000E+00  2.5204100320E+03  2.5204100320E+03  0.0000000000E+00 0. 9.
       2   -1    0    0  102    0  0.0000000000E+00  0.0000000000E+00 -4.7615908476E+02  4.7615908476E+02  0.0000000000E+00 0. 9.
 2000002    2    1    2  102    0  4.3876583377E+02 -1.2850394170E+02  1.1475752391E+03  1.5838660324E+03  9.9129912700E+02 0. 9.
 2000002    2    1    2  101    0 -4.3876583377E+02  1.2850394170E+02  8.9667570813E+02  1.4127030844E+03  9.9129912700E+02 0. 9.
 1000021    2    3    0  102  103  4.5165304928E+02 -2.1899474452E+02  1.0581212279E+03  1.4559723471E+03  8.6503512500E+02 0. 9.
       2    1    3    0  103    0 -1.2887215515E+01  9.0490802814E+01  8.9454011262E+01  1.2789368533E+02  3.3000000000E-01 0. 9.
 1000021    2    4    0  101  104 -3.2845313430E+02  1.7216987220E+02  8.8763544129E+02  1.2937180413E+03  8.6503512500E+02 0. 9.
       2    1    4    0  104    0 -1.1031269947E+02 -4.3665930502E+01  9.0402668404E+00  1.1898504307E+02  3.3000000000E-01 0. 9.
 1000024    2    5    0    0    0  2.0458114138E+02  1.7926732365E+01  2.9620337516E+02  4.4976802293E+02  2.6903535800E+02 0. 9.
      -6    2    5    0    0  103  4.1103374757E+02 -1.5366222555E+02  5.7793108507E+02  7.4603176895E+02  1.7320000000E+02 0. 9.
       5    1    5    0  102    0 -1.6396183967E+02 -8.3259251334E+01  1.8398676763E+02  2.6017255517E+02  4.8000000000E+00 0. 9.
 1000023    2    7    0    0    0 -1.4293943888E+02  4.9605373369E+01  4.1513475446E+02  5.1723549472E+02  2.6889276000E+02 0. 9.
       3    1    7    0  101    0 -1.7379435537E+02 -2.1548570070E+02  2.3562110140E+02  3.6353283014E+02  5.0000000000E-01 0. 9.
      -3    1    7    0    0  104 -1.1719340052E+01  3.3805019953E+02  2.3687958544E+02  4.1294971647E+02  5.0000000000E-01 0. 9.
 1000022    1    9    0    0    0  1.0583063351E+02  9.2192194048E+01  1.5584071181E+02  2.4620507230E+02  1.2896157000E+02 0. 9.
      24    2    9    0    0    0  9.8750507873E+01 -7.4265461683E+01  1.4036266336E+02  2.0356295064E+02  8.0431188000E+01 0. 9.
     -24    2   10    0    0    0  3.9078604656E+02 -1.5507004139E+02  5.8421509802E+02  7.2424920344E+02  8.0431188000E+01 0. 9.
      -5    1   10    0    0  103  2.0247701005E+01  1.4078158455E+00 -6.2840129544E+00  2.1782565512E+01  4.8000000000E+00 0. 9.
 1000022    1   12    0    0    0 -4.0957157087E+00  3.9032000289E+01  2.4237193322E+02  2.7733646079E+02  1.2896157000E+02 0. 9.
      23    2   12    0    0    0 -1.3884372317E+02  1.0573373081E+01  1.7276282124E+02  2.3989903392E+02  9.1187600000E+01 0. 9.
      -1    1   16    0    0  105  1.1156242604E+02 -5.5486214186E+01  1.1597194465E+02  1.7021896403E+02  3.3000000000E-01 0. 9.
       2    1   16    0  105    0 -1.2811918171E+01 -1.8779247496E+01  2.4390718706E+01  3.3343986606E+01  3.3000000000E-01 0. 9.
       1    1   17    0  106    0  2.0686991091E+02 -1.2004956236E+02  3.5897859030E+02  4.3136155909E+02  3.3000000000E-01 0. 9.
      -2    1   17    0    0  106  1.8391613566E+02 -3.5020479029E+01  2.2523650772E+02  2.9288764436E+02  3.3000000000E-01 0. 9.
       5    1   20    0  107    0 -5.2305352254E+01 -3.9841541586E+01  6.2114334975E+01  9.0578302698E+01  4.8000000000E+00 0. 9.
      -5    1   20    0    0  107 -8.6538370918E+01  5.0414914666E+01  1.1064848626E+02  1.4932073123E+02  4.8000000000E+00 0. 9.
</event>
<event>
    20   259  1.000000E+00  9.488456E+02  7.972440E-03  9.328490E-02
       2   -1    0    0  101    0  0.0000000000E+00  0.0000000000E+00  1.8047126925E+03  1.8047126925E+03  0.0000000000E+00 0. 9.
      21   -1    0    0  102  101  0.0000000000E+00  0.0000000000E+00 -5.4811330732E+02  5.4811330732E+02  0.0000000000E+00 0. 9.
 2000002    2    1    2  103    0 -1.5872461496E+02 -9.8156275246E+01  1.0249694452E+03  1.4380766601E+03  9.9129912700E+02 0. 9.
 1000021    2    1    2  102  103  1.5872461496E+02  9.8156275246E+01  2.3162993999E+02  9.1474933963E+02  8.6503512500E+02 0. 9.
 1000021    2    3    0  103  104 -9.6653179181E+01 -1.7164235035E+02  8.0487071452E+02  1.1978754393E+03  8.6503512500E+02 0. 9.
       2    1    3    0  104    0 -6.2071435780E+01  7.3486075103E+01  2.2009873063E+02  2.4020122085E+02  3.3000000000E-01 0. 9.
-1000024    2    4    0    0    0 -2.5508787517E+02  4.3913743124E+01 -5.8960911822E+01  3.7796118037E+02  2.6903535800E+02 0. 9.
       2    1    4    0  102    0  1.0350957688E+02 -1.3448561664E+00 -6.3529363992E+00  1.0371359528E+02  3.3000000000E-01 0. 9.
      -1    1    4    0    0  103  3.1030291325E+02  5.5587388288E+01  2.9694378821E+02  4.3307456397E+02  3.3000000000E-01 0. 9.
 1000024    2    5    0    0    0  2.4540606332E+02 -1.1361226916E+02  2.3635307044E+02  4.4874790404E+02  2.6903535800E+02 0. 9.
      -2    1    5    0    0  104 -2.2844143651E+02 -1.2516500069E+02  5.5912328574E+02  6.1682309042E+02  3.3000000000E-01 0. 9.
       1    1    5    0  103    0 -1.1361780599E+02  6.7134919496E+01  9.3943583352E+00  1.3230444484E+02  3.3000000000E-01 0. 9.
 1000022    1    7    0    0    0 -9.1120845694E+01  5.2098442597E+01  3.8662080943E+01  1.7071350058E+02  1.2896157000E+02 0. 9.
     -24    2    7    0    0    0 -1.6396702947E+02 -8.1846994726E+00 -9.7622992765E+01  2.0724767979E+02  8.0431188000E+01 0. 9.
 1000022    1   10    0    0    0  1.7589507857E+02 -2.2962236108E+01  6.7233542168E+01  2.2938565492E+02  1.2896157000E+02 0. 9.
      24    2   10    0    0    0  6.9510984751E+01 -9.0650033049E+01  1.6911952828E+02  2.1936224912E+02  8.0431188000E+01 0. 9.
       3    1   14    0  105    0 -1.0939990004E+02  2.9410577586E+01 -7.9932043965E+01  1.3864595867E+02  5.0000000000E-01 0. 9.
      -4    1   14    0    0  105 -5.4567129432E+01 -3.7595277058E+01 -1.7690948800E+01  6.8601721122E+01  1.5000000000E+00 0. 9.
     -13    1   16    0    0    0  6.1412618730E+01 -5.3130077732E+01  1.6071980416E+02  1.8006993506E+02  1.0566000000E-01 0. 9.
      14    1   16    0    0    0  8.0983660212E+00 -3.7519955318E+01  8.3997241164E+00  3.9292314064E+01  0.0000000000E+00 0. 9.
</event>
<event>
    20   259  1.000000E+00  1.018897E+03  7.978963E-03  9.253465E-02
      21   -1    0    0  101  102  0.0000000000E+00  0.0000000000E+00  4.7193986063E+02  4.7193986063E+02  0.0000000000E+00 0. 9.
       2   -1    0    0  102    0  0.0000000000E+00  0.0000000000E+00 -2.2694961571E+03  2.2694961571E+03  0.0000000000E+00 0. 9.
 1000021    2    1    2  101  103  4.1216180744E+02 -5.2864240195E+01 -5.9789023005E+02  1.1306769999E+03  8.6503512500E+02 0. 9.
 2000002    2    1    2  103    0 -4.1216180744E+02  5.2864240195E+01 -1.1996660664E+03  1.6107590178E+03  9.9129912700E+02 0. 9.
 1000023    2    3    0    0    0 -6.6744716854E+00  8.7802311925E+01  9.0645465042E+01  2.9710892155E+02  2.6889276000E+02 0. 9.
       5    1    3    0  101    0  1.8977457256E+02 -1.1046785435E+02 -2.1858098495E+02  3.0986807227E+02  4.8000000000E+00 0. 9.
      -5    1    3    0    0  103  2.2906170656E+02 -3.0198697770E+01 -4.6995471015E+02  5.2370000606E+02  4.8000000000E+00 0. 9.
 1000021    2    4    0  103  104 -4.4871821133E+02  1.3152577015E+02 -1.0560003816E+03  1.4429378486E+03  8.6503512500E+02 0. 9.
       2    1    4    0  104    0  3.6556403896E+01 -7.8661529955E+01 -1.4366568475E+02  1.6782116921E+02  3.3000000000E-01 0. 9.
 1000022    1    5    0    0    0  5.3813922403E+01  4.5597217611E+01  1.0254324150E+02  1.7922401461E+02  1.2896157000E+02 0. 9.
      23    2    5    0    0    0 -6.0488394089E+01  4.2205094313E+01 -1.1897776462E+01  1.1788490694E+02  9.1187600000E+01 0. 9.
 1000023    2    8    0    0    0 -2.9209634915E+02  4.0249839404E+02 -3.7900720342E+02  6.8064308636E+02  2.6889276000E+02 0. 9.
       2    1    8    0  103    0 -3.6586528891E+01  6.0984407433E+00 -2.7932095577E+01  4.6433564790E+01  3.3000000000E-01 0. 9.
      -2    1    8    0    0  104 -1.2003533329E+02 -2.7707106463E+02 -6.4906108263E+02  7.1586119743E+02  3.3000000000E-01 0. 9.
       3    1   11    0  105    0 -2.6090129087E+01 -2.2300291942E+01  1.8169206311E+01  3.8837712528E+01  5.0000000000E-01 0. 9.
      -3    1   11    0    0  105 -3.4398265002E+01  6.4505386255E+01 -3.0066982773E+01  7.9047194410E+01  5.0000000000E-01 0. 9.
 1000022    1   12    0    0    0 -1.5925420361E+02  1.5502112132E+02 -1.7990433128E+02  3.1367196938E+02  1.2896157000E+02 0. 9.
      25    2   12    0    0    0 -1.3284214554E+02  2.4747727272E+02 -1.9910287214E+02  3.6697111699E+02  1.2701893900E+02 0. 9.
       5    1   18    0  106    0 -1.8171361030E+01  1.2131211615E+02 -2.9107393210E+01  1.2616302242E+02  4.8000000000E+00 0. 9.
      -5    1   18    0    0  106 -1.1467078451E+02  1.2616515657E+02 -1.6999547893E+02  2.4080809457E+02  4.8000000000E+00 0. 9.
</event>
<event>
    12   230  1.000000E+00  3.532116E+02  7.883032E-03  1.051073E-01
       4   -1    0    0  101    0  0.0000000000E+00  0.0000000000E+00  1.3635949015E+02  1.3635949015E+02  0.0000000000E+00 0. 9.
      -3   -1    0    0    0  101  0.0000000000E+00  0.0000000000E+00 -9.5445482151E+02  9.5445482151E+02  0.0000000000E+00 0. 9.
 1000024    2    1    2    0    0  1.9114483236E+02  1.2601756476E+02 -2.9810965106E+02  4.6224037197E+02  2.6903535800E+02 0. 9.
 1000023    2    1    2    0    0 -1.9114483236E+02 -1.2601756476E+02 -5.1998568030E+02  6.2857393969E+02  2.6889276000E+02 0. 9.
 1000022    1    3    0    0    0  1.3655434090E+02  9.7510682162E+01 -2.9217310038E+02  3.6076533686E+02  1.2896157000E+02 0. 9.
      24    2    3    0    0    0  5.4590491463E+01  2.8506882600E+01 -5.9365506794E+00  1.0147503511E+02  8.0431188000E+01 0. 9.
 1000022    1    4    0    0    0 -1.0335271846E+02 -5.2649394975E+01 -3.3133904920E+02  3.7399250697E+02  1.2896157000E+02 0. 9.
      25    2    4    0    0    0 -8.7792113901E+01 -7.3368169786E+01 -1.8864663110E+02  2.5458143273E+02  1.2701893900E+02 0. 9.
      -3    1    6    0    0  102  3.0117534801E-01 -1.0528955862E+01  2.5483543809E+01  2.7579170096E+01  5.0000000000E-01 0. 9.
       4    1    6    0  102    0  5.4289316115E+01  3.9035838461E+01 -3.1420094488E+01  7.3895865015E+01  1.5000000000E+00 0. 9.
       4    1    8    0  103    0 -1.1776126311E+02 -7.1048618314E+01 -1.3306372950E+02  1.9137352837E+02  1.5000000000E+00 0. 9.
      -4    1    8    0    0  103  2.9969149205E+01 -2.3195514725E+00 -5.5582901604E+01  6.3207904362E+01  1.5000000000E+00 0. 9.
</event>
<event>
    12   230  1.000000E+00  3.191388E+02  7.873967E-03  1.064928E-01
      -2   -1    0    0    0  101  0.0000000000E+00  0.0000000000E+00  2.5982740469E+02  2.5982740469E+02  0.0000000000E+00 0. 9.
       1   -1    0    0  101    0  0.0000000000E+00  0.0000000000E+00 -3.9203112948E+02  3.9203112948E+02  0.0000000000E+00 0. 9.
-1000024    2    1    2    0    0  9.8505947379E+01  1.4072839162E+02 -6.9480092450E+01  3.2667324497E+02  2.6903535800E+02 0. 9.
 1000023    2    1    2    0    0 -9.8505947379E+01 -1.4072839162E+02 -6.2723632343E+01  3.2518528920E+02  2.6889276000E+02 0. 9.
 1000022    1    3    0    0    0  6.7821964464E+01  1.7224544100E+02 -6.5452118198E+01  2.3491142399E+02  1.2896157000E+02 0. 9.
     -24    2    3    0    0    0  3.0683982915E+01 -3.1517049380E+01 -4.0279742521E+00  9.1761820976E+01  8.0431188000E+01 0. 9.
 1000022    1    4    0    0    0 -6.3802494104E+01 -1.4099467634E+02  1.2722669827E+01  2.0184947331E+02  1.2896157000E+02 0. 9.
      23    2    4    0    0    0 -3.4703453275E+01  2.6628472224E-01 -7.5446302170E+01  1.2333581589E+02  9.1187600000E+01 0. 9.
      11    1    6    0    0    0  1.9225103265E+01  2.5096628326E+01  8.3297818864E+00  3.2692975016E+01  5.1000000000E-04 0. 9.
     -12    1    6    0    0    0  1.1458879649E+01 -5.6613677706E+01 -1.2357756139E+01  5.9068845960E+01  0.0000000000E+00 0. 9.
       4    1    8    0  102    0 -5.4862181276E+01 -1.0285465644E+01 -8.2363507789E+01  9.9507020622E+01  1.5000000000E+00 0. 9.
      -4    1    8    0    0  102  2.0158728001E+01  1.0551750366E+01  6.9172056187E+00  2.3828795269E+01  1.5000000000E+00 0. 9.
</event>
<event>
    12   230  1.000000E+00  3.069612E+02  7.870496E-03  1.070339E-01
       2   -1    0    0  101    0  0.0000000000E+00  0.0000000000E+00  8.4442854761E+02  8.4442854761E+02  0.0000000000E+00 0. 9.
      -1   -1    0    0    0  101  0.0000000000E+00  0.0000000000E+00 -2.8227945359E+02  2.8227945359E+02  0.0000000000E+00 0. 9.
 1000024    2    1    2    0    0 -6.6585783966E+01  1.3209779944E+02  7.1917577115E+02  7.8197014579E+02  2.6903535800E+02 0. 9.
 1000023    2    1    2    0    0  6.6585783966E+01 -1.3209779944E+02 -1.5702667713E+02  3.4473785541E+02  2.6889276000E+02 0. 9.
 1000022    1    3    0    0    0 -8.9561762358E+00  8.4329403662E+01  6.0144486118E+02  6.2093370741E+02  1.2896157000E+02 0. 9.
      24    2    3    0    0    0 -5.7629607730E+01  4.7768395773E+01  1.1773090997E+02  1.6103643838E+02  8.0431188000E+01 0. 9.
 1000022    1    4    0    0    0 -1.2457518297E+01 -3.7657123062E+00 -8.1209734115E+01  1.5295580343E+02  1.2896157000E+02 0. 9.
      23    2    4    0    0    0  7.9043302263E+01 -1.2833208713E+02 -7.5816943015E+01  1.9178205198E+02  9.1187600000E+01 0. 9.
      -1    1    6    0    0  102 -6.6544017504E+01  2.5172288427E+01  1.1675394386E+02  1.3672359956E+02  3.3000000000E-01 0. 9.
       2    1    6    0  102    0  8.9144097736E+00  2.2596107346E+01  9.7696610995E-01  2.4312838822E+01  3.3000000000E-01 0. 9.
       3    1    8    0  103    0  1.8103489096E+01 -1.6221527073E+01 -5.8064739077E+01  6.2949489133E+01  5.0000000000E-01 0. 9.
      -3    1    8    0    0  103  6.0939813168E+01 -1.1211056006E+02 -1.7752203938E+01  1.2883256285E+02  5.0000000000E-01 0. 9.
</event>
<event>
    17   258  1.000000E+00  9.745950E+02  7.974891E-03  9.300145E-02
      21   -1    0    0  101  102  0.0000000000E+00  0.0000000000E+00  1.0751515254E+03  1.0751515254E+03  0.0000000000E+00 0. 9.
       2   -1    0    0  102    0  0.0000000000E+00  0.0000000000E+00 -9.1014178982E+02  9.1014178982E+02  0.0000000000E+00 0. 9.
 1000021    2    1    2  101  103  2.8853110706E+02  2.9999527950E+01 -1.0258398912E+02  9.1812821203E+02  8.6503512500E+02 0. 9.
 1000002    2    1    2  103    0 -2.8853110706E+02 -2.9999527950E+01  2.6759372474E+02  1.0671651032E+03  9.9150632100E+02 0. 9.
 1000023    2    3    0    0    0  1.2810511993E+02 -7.3762433216E+01 -1.8897263147E+02  3.6036896388E+02  2.6889276000E+02 0. 9.
       2    1    3    0  101    0  3.0345080277E+02  1.4098039069E+01  1.9131248857E+02  3.5900100500E+02  3.3000000000E-01 0. 9.
      -2    1    3    0    0  103 -1.4302481564E+02  8.9663922097E+01 -1.0492384622E+02  1.9875824315E+02  3.3000000000E-01 0. 9.
 1000023    2    4    0    0    0  1.7440483315E+02 -1.0771665232E+02 -2.0958088672E+02  3.9780320194E+02  2.6889276000E+02 0. 9.
       2    1    4    0  103    0 -4.6293594022E+02  7.7717124367E+01  4.7717461146E+02  6.6936190128E+02  3.3000000000E-01 0. 9.
 1000022    1    5    0    0    0  3.2385831287E+01 -5.6163971722E+01 -1.1256847788E+02  1.8304639449E+02  1.2896157000E+02 0. 9.
      25    2    5    0    0    0  9.5719288643E+01 -1.7598461494E+01 -7.6404153590E+01  1.7732256939E+02  1.2701893900E+02 0. 9.
 1000022    1    8    0    0    0  4.5572431555E+01 -3.6561649439E+01 -6.6506083803E+01  1.5642169430E+02  1.2896157000E+02 0. 9.
      25    2    8    0    0    0  1.2883240160E+02 -7.1155002878E+01 -1.4307480291E+02  2.4138150764E+02  1.2701893900E+02 0. 9.
       5    1   11    0  104    0  6.2417583825E+01 -2.9520489951E+01 -1.0891138807E+02  1.2904318870E+02  4.8000000000E+00 0. 9.
      -5    1   11    0    0  104  3.3301704819E+01  1.1922028457E+01  3.2507234483E+01  4.8279380693E+01  4.8000000000E+00 0. 9.
     -15    1   13    0    0    0  1.4621838962E+02 -7.5591274506E+01 -9.5048836919E+01  1.9008234367E+02  1.7770000000E+00 0. 9.
      15    1   13    0    0    0 -1.7385988023E+01  4.4362716282E+00 -4.8025965994E+01  5.1299163971E+01  1.7770000000E+00 0. 9.
</event>
<event>
    15   241  1.000000E+00  8.640471E+02  7.963882E-03  9.428966E-02
      -1   -1    0    0    0  101  0.0000000000E+00  0.0000000000E+00  4.7473996448E+02  4.7473996448E+02  0.0000000000E+00 0. 9.
       2   -1    0    0  102    0  0.0000000000E+00  0.0000000000E+00 -1.5020549711E+03  1.5020549711E+03  0.0000000000E+00 0. 9.
 1000021    2    1    2  102  101  2.3055099345E+02  5.3206266676E+02 -7.3010307052E+02  1.2718414614E+03  8.6503512500E+02 0. 9.
 1000024    2    1    2    0    0 -2.3055099345E+02 -5.3206266676E+02 -2.9721193615E+02  7.0495347420E+02  2.6903535800E+02 0. 9.
 1000023    2    3    0    0    0 -3.7614662663E+01  3.9404030504E+02 -3.0527366368E+02  5.6760721539E+02  2.6889276000E+02 0. 9.
       5    1    3    0  102    0 -1.2277740765E+02  1.0787810595E+02 -7.9906981496E+01  1.8198940427E+02  4.8000000000E+00 0. 9.
      -5    1    3    0    0  101  3.9094306376E+02  3.0144255776E+01 -3.4492242534E+02  5.2224484178E+02  4.8000000000E+00 0. 9.
 1000022    1    4    0    0    0 -2.3295140087E+02 -4.3238241565E+02 -2.6536258367E+02  5.7294789979E+02  1.2896157000E+02 0. 9.
      24    2    4    0    0    0  2.4004074187E+00 -9.9680251117E+01 -3.1849352477E+01  1.3200557441E+02  8.0431188000E+01 0. 9.
 1000022    1    5    0    0    0 -5.1194056369E+01  1.6532683439E+02 -2.1598800321E+02  3.0534521061E+02  1.2896157000E+02 0. 9.
      23    2    5    0    0    0  1.3579393706E+01  2.2871347065E+02 -8.9285660479E+01  2.6226200478E+02  9.1187600000E+01 0. 9.
      -3    1    9    0    0  103 -9.3671546751E+00 -7.3647072254E+01 -5.7246791644E+01  9.3750093290E+01  5.0000000000E-01 0. 9.
       4    1    9    0  103    0  1.1767562094E+01 -2.6033178863E+01  2.5397439167E+01  3.8255481119E+01  1.5000000000E+00 0. 9.
       4    1   11    0  104    0  2.0208157701E+01  1.5602604432E+02 -1.4905640152E+01  1.5804089424E+02  1.5000000000E+00 0. 9.
      -4    1   11    0    0  104 -6.6287639947E+00  7.2687426334E+01 -7.4380020327E+01  1.0422111054E+02  1.5000000000E+00 0. 9.
</event>
<event>
    12   230  1.000000E+00  7.332060E+02  7.948918E-03  9.610523E-02
       2   -1    0    0  101    0  0.0000000000E+00  0.0000000000E+00  7.8955644555E+02  7.8955644555E+02  0.0000000000E+00 0. 9.
      -1   -1    0    0    0  101  0.0000000000E+00  0.0000000000E+00 -7.3702831459E+02  7.3702831459E+02  0.0000000000E+00 0. 9.
 1000024    2    1    2    0    0 -6.7976147077E+02  5.6335917597E+01  2.3694703056E+02  7.7056687698E+02  2.6903535800E+02 0. 9.
 1000023    2    1    2    0    0  6.7976147077E+02 -5.6335917597E+01 -1.8441889960E+02  7.5601788316E+02  2.6889276000E+02 0. 9.
 1000022    1    3    0    0    0 -2.7536331186E+02 -4.4691855417E+01  7.6220921331E+01  3.1664338118E+02  1.2896157000E+02 0. 9.
      24    2    3    0    0    0 -4.0439815891E+02  1.0102777301E+02  1.6072610923E+02  4.5392349580E+02  8.0431188000E+01 0. 9.
 1000022    1    4    0    0    0  2.5656534827E+02 -6.9709683882E+00 -5.0092912129E+01  2.9157290463E+02  1.2896157000E+02 0. 9.
      25    2    4    0    0    0  4.2319612250E+02 -4.9364949209E+01 -1.3432598747E+02  4.6444497853E+02  1.2701893900E+02 0. 9.
      -3    1    6    0    0  102 -2.0002040954E+02  5.8530041074E+01  1.2235616593E+02  2.4167170145E+02  5.0000000000E-01 0. 9.
       4    1    6    0  102    0 -2.0437774936E+02  4.2497731940E+01  3.8369943305E+01  2.1225179435E+02  1.5000000000E+00 0. 9.
      21    1    8    0  103  104  3.1933269070E+02  1.5149371669E+01 -7.4189031402E+01  3.2818726848E+02  0.0000000000E+00 0. 9.
      21    1    8    0  104  103  1.0386343180E+02 -6.4514320879E+01 -6.0136956068E+01  1.3625771005E+02  0.0000000000E+00 0. 9.
</event>
<event>
    22   272  1.000000E+00  1.151967E+03  7.990229E-03  9.126968E-02
       1   -1    0    0  101    0  0.0000000000E+00  0.0000000000E+00  9.5066971119E+02  9.5066971119E+02  0.0000000000E+00 0. 9.
       2   -1    0    0  102    0  0.0000000000E+00  0.0000000000E+00 -1.4077824791E+03  1.4077824791E+03  0.0000000000E+00 0. 9.
 2000001    2    1    2  102    0 -5.5848774290E+02 -1.7900224736E+02 -3.3698966693E+02  1.2004133818E+03  9.9170554500E+02 0. 9.
 2000002    2    1    2  101    0  5.5848774290E+02  1.7900224736E+02 -1.2012310101E+02  1.1580388086E+03  9.9129912700E+02 0. 9.
 1000021    2    3    0  102  103 -5.2074809331E+02 -1.2729170975E+02 -4.1539600501E+02  1.0991912320E+03  8.6503512500E+02 0. 9.
       1    1    3    0  103    0 -3.7739649585E+01 -5.1710537615E+01  7.8406338080E+01  1.0122214976E+02  3.3000000000E-01 0. 9.
 1000021    2    4    0  101  104  5.6141610924E+02  9.0930784591E+01 -3.5489221027E+01  1.0358579573E+03  8.6503512500E+02 0. 9.
       2    1    4    0  104    0 -2.9283663460E+00  8.8071462772E+01 -8.4633879983E+01  1.2218085130E+02  3.3000000000E-01 0. 9.
 1000024    2    5    0    0    0 -8.4044255977E+00  7.2034484512E+01 -2.9453466337E+01  2.8019124159E+02  2.6903535800E+02 0. 9.
      -2    1    5    0    0  103 -1.9364233491E+02 -1.4258987897E+02 -4.2963021155E+02  4.9235297809E+02  3.3000000000E-01 0. 9.
       1    1    5    0  102    0 -3.1870133280E+02 -5.6736315293E+01  4.3687672879E+01  3.2664701233E+02  3.3000000000E-01 0. 9.
 1000023    2    7    0    0    0  2.2775115225E+02  4.5015501649E+01 -1.3569808546E+02  3.8028182907E+02  2.6889276000E+02 0. 9.
       3    1    7    0  101    0  3.0925079795E+02 -1.6083289291E+02 -1.0420106615E+02  3.6381504595E+02  5.0000000000E-01 0. 9.
      -3    1    7    0    0  104  2.4414159039E+01  2.0674817585E+02  2.0440993059E+02  2.9176108223E+02  5.0000000000E-01 0. 9.
 1000022    1    9    0    0    0  3.6873003705E+00 -4.2463771923E+01 -3.2713167670E+01  1.3970685733E+02  1.2896157000E+02 0. 9.
      24    2    9    0    0    0 -1.2091725968E+01  1.1449825643E+02  3.2597013329E+00  1.4048438425E+02  8.0431188000E+01 0. 9.
 1000022    1   12    0    0    0  1.0633454706E+02 -6.4977969832E+00 -9.6188489139E+01  1.9295742858E+02  1.2896157000E+02 0. 9.
      25    2   12    0    0    0  1.2141660520E+02  5.1513298632E+01 -3.9509596326E+01  1.8732440049E+02  1.2701893900E+02 0. 9.
      -1    1   16    0    0  105 -3.7508253899E+01  6.8425542272E+01  2.7250893703E+01  8.2653760068E+01  3.3000000000E-01 0. 9.
       2    1   16    0  105    0  2.5416527931E+01  4.6072714163E+01 -2.3991192371E+01  5.7830624186E+01  3.3000000000E-01 0. 9.
       5    1   18    0  106    0 -2.4008042948E+01  7.0782578199E+00  9.9348780666E+00  2.7353786980E+01  4.8000000000E+00 0. 9.
      -5    1   18    0    0  106  1.4542464814E+02  4.4435040812E+01 -4.9444474392E+01  1.5997061351E+02  4.8000000000E+00 0. 9.
</event>
<event>
    12   230  1.000000E+00  3.167307E+02  7.873291E-03  1.065977E-01
      -1   -1    0    0    0  101  0.0000000000E+00  0.0000000000E+00  3.3505854978E+02  3.3505854978E+02  0.0000000000E+00 0. 9.
       2   -1    0    0  101    0  0.0000000000E+00  0.0000000000E+00 -3.7574821329E+02  3.7574821329E+02  0.0000000000E+00 0. 9.
 1000023    2    1    2    0    0 -6.6408289330E+01 -1.5351410796E+02  1.3985639106E+02  3.4617881035E+02  2.6889276000E+02 0. 9.
 1000024    2    1    2    0    0  6.6408289330E+01  1.5351410796E+02 -1.8054605456E+02  3.6462795272E+02  2.6903535800E+02 0. 9.
 1000022    1    3    0    0    0 -6.9492680209E+00 -9.9084359537E+01  9.8092682991E+01  1.9005068699E+02  1.2896157000E+02 0. 9.
      25    2    3    0    0    0 -5.9459021309E+01 -5.4429748422E+01  4.1763708067E+01  1.5612812336E+02  1.2701893900E+02 0. 9.
 1000022    1    4    0    0    0 -1.7131857880E+01  8.5091181478E+00 -6.2244318438E+01  1.4446919174E+02  1.2896157000E+02 0. 9.
      24    2    4    0    0    0  8.3540147211E+01  1.4500498981E+02 -1.1830173612E+02  2.2015876099E+02  8.0431188000E+01 0. 9.
       5    1    6    0  102    0 -5.6284640666E+01 -8.6761658756E+01  5.8872225461E+01  1.1909880409E+02  4.8000000000E+00 0. 9.
      -5    1    6    0    0  102 -3.1743806432E+00  3.2331910334E+01 -1.7108517395E+01  3.7029319272E+01  4.8000000000E+00 0. 9.
     -13    1    8    0    0    0  4.4876674511E+01  6.0724230768E+01 -7.8041511790E+00  7.5909578165E+01  1.0566000000E-01 0. 9.
      14    1    8    0    0    0  3.8663472699E+01  8.4280759043E+01 -1.1049758494E+02  1.4424918282E+02  0.0000000000E+00 0. 9.
</event>
<event>
    13   258  1.000000E+00  1.010431E+03  7.978198E-03  9.262191E-02
      21   -1    0    0  101  102  0.0000000000E+00  0.0000000000E+00  1.8510683621E+03  1.8510683621E+03  0.0000000000E+00 0. 9.
       1   -1    0    0  102    0  0.0000000000E+00  0.0000000000E+00 -5.7501977930E+02  5.7501977930E+02  0.0000000000E+00 0. 9.
 1000021    2    1    2  101  103  1.3601315160E+02  3.6605104535E+02  8.5642226691E+02  1.2783731114E+03  8.6503512500E+02 0. 9.
 1000001    2    1    2  103    0 -1.3601315160E+02 -3.6605104535E+02  4.1962631588E+02  1.1477150300E+03  9.9431916400E+02 0. 9.
 1000022    1    3    0    0    0 -2.2584114229E+01 -1.3646549601E+02 -3.0989795443E+01  1.9163592506E+02  1.2896157000E+02 0. 9.
       2    1    3    0  101    0  1.8941684425E+02  2.5430179851E+02  7.1726412464E+02  7.8422960860E+02  3.3000000000E-01 0. 9.
      -2    1    3    0    0  103 -3.0819578418E+01  2.4821474285E+02  1.7014793771E+02  3.0250757774E+02  3.3000000000E-01 0. 9.
 1000023    2    4    0    0    0 -4.4509398512E+02  4.6634034746E+01  3.4732481916E+02  6.2707354845E+02  2.6889276000E+02 0. 9.
       1    1    4    0  103    0  3.0908083351E+02 -4.1268508010E+02  7.2301496718E+01  5.2064148155E+02  3.3000000000E-01 0. 9.
 1000022    1    8    0    0    0 -3.6831459172E+02  2.2641118422E+01  2.1030178965E+02  4.4387632059E+02  1.2896157000E+02 0. 9.
      23    2    8    0    0    0 -7.6779393393E+01  2.3992916324E+01  1.3702302952E+02  1.8319722786E+02  9.1187600000E+01 0. 9.
       5    1   11    0  104    0 -4.7678051595E+01 -1.8321031852E+01  1.9552375230E+01  5.4901659256E+01  4.8000000000E+00 0. 9.
      -5    1   11    0    0  104 -2.9101341799E+01  4.2313948175E+01  1.1747065429E+02  1.2829556860E+02  4.8000000000E+00 0. 9.
</event>
<event>
    12   230  1.000000E+00  3.570466E+02  7.883998E-03  1.049620E-01
      -1   -1    0    0    0  101  0.0000000000E+00  0.0000000000E+00  4.5988266254E+02  4.5988266254E+02  0.0000000000E+00 0. 9.
       2   -1    0    0  101    0  0.0000000000E+00  0.0000000000E+00 -3.4643386019E+02  3.4643386019E+02  0.0000000000E+00 0. 9.
 1000023    2    1    2    0    0 -8.5609574115E+01  2.1865865458E+02 -1.2350350016E+02  3.7775261394E+02  2.6889276000E+02 0. 9.
 1000024    2    1    2    0    0  8.5609574115E+01 -2.1865865458E+02  2.3695230251E+02  4.2856390880E+02  2.6903535800E+02 0. 9.
 1000022    1    3    0    0    0 -1.0546270185E+02  9.3434806824E+01 -2.3842675819E+01  1.9248897198E+02  1.2896157000E+02 0. 9.
      23    2    3    0    0    0  1.9853127734E+01  1.2522384776E+02 -9.9660824343E+01  1.8526364195E+02  9.1187600000E+01 0. 9.
 1000022    1    4    0    0    0  8.8777222931E+01 -7.2543064727E+01  5.3619494446E+01  1.8069318823E+02  1.2896157000E+02 0. 9.
      24    2    4    0    0    0 -3.1676488160E+00 -1.4611558985E+02  1.8333280807E+02  2.4787072057E+02  8.0431188000E+01 0. 9.
       1    1    6    0  102    0  3.8375487488E+01  1.5566539899E+01 -4.5632051626E+01  6.1622952217E+01  3.3000000000E-01 0. 9.
      -1    1    6    0    0  102 -1.8522359754E+01  1.0965730786E+02 -5.4028772717E+01  1.2364068974E+02  3.3000000000E-01 0. 9.
      -1    1    8    0    0  103 -3.3310912358E+01 -3.9549654548E+01  8.6410369435E+01  1.0070080885E+02  3.3000000000E-01 0. 9.
       2    1    8    0  103    0  3.0143263542E+01 -1.0656593531E+02  9.6922438634E+01  1.4716991172E+02  3.3000000000E-01 0. 9.
</event>
<event>
    26   272  1.000000E+00  1.004969E+03  7.977701E-03  9.267868E-02
       1   -1    0    0  101    0  0.0000000000E+00  0.0000000000E+00  1.1142420396E+03  1.1142420396E+03  0.0000000000E+00 0. 9.
       2   -1    0    0  102    0  0.0000000000E+00  0.0000000000E+00 -1.4619682391E+03  1.4619682391E+03  0.0000000000E+00 0. 9.
 2000001    2    1    2  102    0  6.3807914706E+01  1.5104196388E+02  6.2016288218E+02  1.1810872166E+03  9.9170554500E+02 0. 9.
 2000002    2    1    2  101    0 -6.3807914706E+01 -1.5104196388E+02 -9.6788908167E+02  1.3951230621E+03  9.9129912700E+02 0. 9.
 1000021    2    3    0  102  103 -2.4844207355E+00  3.7442416470E+01  4.8473770168E+02  9.9230263217E+02  8.6503512500E+02 0. 9.
       1    1    3    0  103    0  6.6292335442E+01  1.1359954741E+02  1.3542518050E+02  1.8878458445E+02  3.3000000000E-01 0. 9.
 1000021    2    4    0  101  104  5.4238463187E+01 -1.5118264717E+02 -9.0155011479E+02  1.2597128167E+03  8.6503512500E+02 0. 9.
       2    1    4    0  104    0 -1.1804637789E+02  1.4068329112E-01 -6.6338966878E+01  1.3541024537E+02  3.3000000000E-01 0. 9.
 1000024    2    5    0    0    0 -4.7918164605E+01  9.9616061045E+01  1.7456917512E+02  3.3922548677E+02  2.6903535800E+02 0. 9.
      -6    2    5    0    0  103  1.6265462038E+02 -2.2610049676E+02  6.2753017665E+01  3.3393733153E+02  1.7320000000E+02 0. 9.
       5    1    5    0  102    0 -1.1722087651E+02  1.6392685218E+02  2.4741550889E+02  3.1913981387E+02  4.8000000000E+00 0. 9.
-1000024    2    7    0    0    0 -2.0051705494E+01  4.5033124106E+01 -3.0724509534E+02  4.1135097620E+02  2.6903535800E+02 0. 9.
       2    1    7    0  101    0  2.1289976337E+02 -2.0005004932E+02 -6.3904838455E+02  7.0265872098E+02  3.3000000000E-01 0. 9.
      -1    1    7    0    0  104 -1.3860959469E+02  3.8342780418E+00  4.4743365097E+01  1.4570311956E+02  3.3000000000E-01 0. 9.
 1000022    1    9    0    0    0 -9.8888801845E+01  6.2922727499E+01  1.5918007864E+02  2.3602467824E+02  1.2896157000E+02 0. 9.
      24    2    9    0    0    0  5.0970637240E+01  3.6693333546E+01  1.5389096482E+01  1.0320080853E+02  8.0431188000E+01 0. 9.
     -24    2   10    0    0    0  1.7631040815E+02 -1.3795471030E+02  5.5837005510E+01  2.4434362956E+02  8.0431188000E+01 0. 9.
      -5    1   10    0    0  103 -1.3655787774E+01 -8.8145786453E+01  6.9160121549E+00  8.9593701973E+01  4.8000000000E+00 0. 9.
 1000022    1   12    0    0    0  6.1156407278E+01  1.9770826687E+01 -1.0727095547E+02  1.7963612154E+02  1.2896157000E+02 0. 9.
     -24    2   12    0    0    0 -8.1208112772E+01  2.5262297419E+01 -1.9997413987E+02  2.3171485466E+02  8.0431188000E+01 0. 9.
      -3    1   16    0    0  105 -6.4193740345E+00  5.8126124118E+00  3.4256151902E+01  3.5337356568E+01  5.0000000000E-01 0. 9.
       4    1   16    0  105    0  5.7390011275E+01  3.0880721134E+01 -1.8867055420E+01  6.7863451961E+01  1.5000000000E+00 0. 9.
       1    1   17    0  106    0  5.6826576539E+01 -8.8707580682E+01  4.9955900842E+00  1.0546733851E+02  3.3000000000E-01 0. 9.
      -2    1   17    0    0  106  1.1948383162E+02 -4.9247129620E+01  5.0841415426E+01  1.3887629105E+02  3.3000000000E-01 0. 9.
      11    1   20    0    0    0 -4.1955830039E+00 -1.1565653403E+01 -9.7809196118E+01  9.8579947762E+01  5.1000000000E-04 0. 9.
     -12    1   20    0    0    0 -7.7012529768E+01  3.6827950821E+01 -1.0216494375E+02  1.3313490690E+02  0.0000000000E+00 0. 9.
</event>
<event>
    22   272  1.000000E+00  1.026386E+03  7.979634E-03  9.245820E-02
       2   -1    0    0  101    0  0.0000000000E+00  0.0000000000E+00  2.3198112993E+03  2.3198112993E+03  0.0000000000E+00 0. 9.
       1   -1    0    0  102    0  0.0000000000E+00  0.0000000000E+00 -4.5726438402E+02  4.5726438402E+02  0.0000000000E+00 0. 9.
 2000002    2    1    2  102    0  2.4985974562E+02  8.9221716528E+01  1.0462834354E+03  1.4655283667E+03  9.9129912700E+02 0. 9.
 2000001    2    1    2  101    0 -2.4985974562E+02 -8.9221716528E+01  8.1626347988E+02  1.3115473166E+03  9.9170554500E+02 0. 9.
 1000021    2    3    0  102  103  3.0665999351E+02  2.1339926641E+01  8.5392061229E+02  1.2537790570E+03  8.6503512500E+02 0. 9.
       2    1    3    0  103    0 -5.6800247886E+01  6.7881789887E+01  1.9236282309E+02  2.1174930971E+02  3.3000000000E-01 0. 9.
 1000021    2    4    0  101  104 -2.4337226268E+02  3.5736489360E+01  7.4298845688E+02  1.1665439424E+03  8.6503512500E+02 0. 9.
       1    1    4    0  104    0 -6.4874829480E+00 -1.2495820589E+02  7.3275023000E+01  1.4500337427E+02  3.3000000000E-01 0. 9.
-1000024    2    5    0    0    0  3.6065686014E+02  1.7549074354E+01  4.2586263214E+02  6.1977443162E+02  2.6903535800E+02 0. 9.
       4    1    5    0  102    0  1.7452010677E+02 -1.1354574296E+02  2.2501762103E+02  3.0656986672E+02  1.5000000000E+00 0. 9.
      -3    1    5    0    0  103 -2.2851697340E+02  1.1733659525E+02  2.0304035912E+02  3.2743475862E+02  5.0000000000E-01 0. 9.
 1000024    2    7    0    0    0 -4.4972423433E+01 -3.2610299968E+01  5.9566821207E+02  6.5596234134E+02  2.6903535800E+02 0. 9.
      -4    1    7    0    0  104 -7.6493571706E+01  4.5226830563E+01 -1.5784988749E+02  1.8115068230E+02  1.5000000000E+00 0. 9.
       3    1    7    0  101    0 -1.2190626754E+02  2.3119958765E+01  3.0517013231E+02  3.2943091872E+02  5.0000000000E-01 0. 9.
 1000022    1    9    0    0    0  1.2468568258E+02  7.1083477188E+01  1.5241358530E+02  2.4588690020E+02  1.2896157000E+02 0. 9.
     -24    2    9    0    0    0  2.3597117757E+02 -5.3534402834E+01  2.7344904684E+02  3.7388753142E+02  8.0431188000E+01 0. 9.
 1000022    1   12    0    0    0  1.8226937786E+01  4.8918107449E+00  1.5741027471E+02  2.0436543787E+02  1.2896157000E+02 0. 9.
      24    2   12    0    0    0 -6.3199361219E+01 -3.7502110713E+01  4.3825793736E+02  4.5159690347E+02  8.0431188000E+01 0. 9.
       3    1   16    0  105    0  1.8909883552E+02 -6.1237104937E+01  2.5402122396E+02  3.2254516713E+02  5.0000000000E-01 0. 9.
      -4    1   16    0    0  105  4.6872342050E+01  7.7027021031E+00  1.9427822875E+01  5.1342364287E+01  1.5000000000E+00 0. 9.
      -3    1   18    0    0  106  7.2184185164E+00 -3.7476846320E+01  1.7160582728E+02  1.7579940140E+02  5.0000000000E-01 0. 9.
       4    1   18    0  106    0 -7.0417779735E+01 -2.5264392573E-02  2.6665211008E+02  2.7579750207E+02  1.5000000000E+00 0. 9.
</event>
<event>
    16   271  1.000000E+00  1.160138E+03  7.990879E-03  9.119790E-02
       2   -1    0    0  101    0  0.0000000000E+00  0.0000000000E+00  1.8565012845E+03  1.8565012845E+03  0.0000000000E+00 0. 9.
       2   -1    0    0  102    0  0.0000000000E+00  0.0000000000E+00 -8.2577852529E+02  8.2577852529E+02  0.0000000000E+00 0. 9.
 1000002    2    1    2  101    0 -2.2973433716E+02 -5.5682705661E+02  4.6787765649E+01  1.1610805813E+03  9.9150632100E+02 0. 9.
 1000002    2    1    2  102    0  2.2973433716E+02  5.5682705661E+02  9.8393499352E+02  1.5211992285E+03  9.9150632100E+02 0. 9.
 1000023    2    3    0    0    0  2.9107696625E+02 -2.1698684646E+02 -1.9732887631E+02  4.9300212334E+02  2.6889276000E+02 0. 9.
       2    1    3    0  101    0 -5.2081130340E+02 -3.3984021015E+02  2.4411664196E+02  6.6807845794E+02  3.3000000000E-01 0. 9.
 1000023    2    4    0    0    0  2.9287933567E+02 -1.0200937978E+02  6.7681330708E+02  7.9155782344E+02  2.6889276000E+02 0. 9.
       2    1    4    0  102    0 -6.3144998514E+01  6.5883643639E+02  3.0712168643E+02  7.2964140503E+02  3.3000000000E-01 0. 9.
 1000022    1    5    0    0    0  1.0317392427E+02 -1.0588022990E+02 -1.1480180571E+02  2.2730161210E+02  1.2896157000E+02 0. 9.
      25    2    5    0    0    0  1.8790304198E+02 -1.1110661656E+02 -8.2527070598E+01  2.6570051124E+02  1.2701893900E+02 0. 9.
 1000022    1    7    0    0    0  1.2690502547E+02 -8.5263047373E+01  3.0596473645E+02  3.6554094056E+02  1.2896157000E+02 0. 9.
      25    2    7    0    0    0  1.6597431019E+02 -1.6746332405E+01  3.7084857063E+02  4.2601688288E+02  1.2701893900E+02 0. 9.
       5    1   10    0  103    0  9.8695879303E+00 -6.5681071105E+01 -3.7661736518E+01  7.6503975485E+01  4.8000000000E+00 0. 9.
      -5    1   10    0    0  103  1.7803345405E+02 -4.5425545454E+01 -4.4865334079E+01  1.8919653576E+02  4.8000000000E+00 0. 9.
       5    1   12    0  104    0  1.0060866228E-01 -2.7591595452E+01  1.3225435097E+02  1.3518712814E+02  4.8000000000E+00 0. 9.
      -5    1   12    0    0  104  1.6587370153E+02  1.0845263047E+01  2.3859421966E+02  2.9082975474E+02  4.8000000000E+00 0. 9.
</event>
<event>
    23   271  1.000000E+00  1.041755E+03  7.980997E-03  9.230343E-02
       1   -1    0    0  101    0  0.0000000000E+00  0.0000000000E+00  1.2613716838E+03  1.2613716838E+03  0.0000000000E+00 0. 9.
       2   -1    0    0  102    0  0.0000000000E+00  0.0000000000E+00 -9.2467686618E+02  9.2467686618E+02  0.0000000000E+00 0. 9.
 1000001    2    1    2  102    0 -2.9279642468E+02  1.1681193063E+02  4.5678721023E+02  1.1387273285E+03  9.9431916400E+02 0. 9.
 1000002    2    1    2  101    0  2.9279642468E+02 -1.1681193063E+02 -1.2009239264E+02  1.0473212214E+03  9.9150632100E+02 0. 9.
-1000024    2    3    0    0    0 -1.4774851259E+02  3.8770354165E+02 -9.8389075956E+01  5.0418656597E+02  2.6903535800E+02 0. 9.
       2    1    3    0  102    0 -1.4504791209E+02 -2.7089161102E+02  5.5517628619E+02  6.3454076257E+02  3.3000000000E-01 0. 9.
 1000021    2    4    0  101  103  3.2662110604E+02 -8.0598841436E+01 -2.0359858565E+02  9.5021874940E+02  8.6503512500E+02 0. 9.
       2    1    4    0  103    0 -3.3824681358E+01 -3.6213089199E+01  8.3506193007E+01  9.7102472001E+01  3.3000000000E-01 0. 9.
 1000022    1    5    0    0    0 -9.4480619967E-01  1.0661879625E+02 -3.4783620265E+01  1.7090771530E+02  1.2896157000E+02 0. 9.
     -24    2    5    0    0    0 -1.4680370639E+02  2.8108474541E+02 -6.3605455690E+01  3.3327885068E+02  8.0431188000E+01 0. 9.
 1000024    2    7    0    0    0  2.0079090104E+02  8.2140096585E+01 -2.5474339455E+02  4.2934624993E+02  2.6903535800E+02 0. 9.
      -6    2    7    0    0  103  1.8219156678E+02  8.3916187131E+01  1.7597582546E+01  2.6560046758E+02  1.7320000000E+02 0. 9.
       5    1    7    0  101    0 -5.6361361784E+01 -2.4665512515E+02  3.3547226362E+01  2.5527203188E+02  4.8000000000E+00 0. 9.
       1    1   10    0  104    0 -1.0275937733E+02  1.3857039283E+02 -6.4309825617E+01  1.8411166712E+02  3.3000000000E-01 0. 9.
      -2    1   10    0    0  104 -4.4044329061E+01  1.4251435258E+02  7.0436992716E-01  1.4916718356E+02  3.3000000000E-01 0. 9.
 1000022    1   11    0    0    0  2.0954641637E+02  4.9937561399E+01 -2.2555530878E+02  3.3750517701E+02  1.2896157000E+02 0. 9.
      24    2   11    0    0    0 -8.7555153324E+00  3.2202535186E+01 -2.9188085773E+01  9.1841072921E+01  8.0431188000E+01 0. 9.
     -24    2   12    0    0    0  1.2114703963E+02 -1.7519098721E+01  1.2649786326E+01  1.4701264275E+02  8.0431188000E+01 0. 9.
      -5    1   12    0    0  103  6.1044527149E+01  1.0143528585E+02  4.9477962203E+00  1.1858782483E+02  4.8000000000E+00 0. 9.
      -3    1   17    0    0  105 -1.8444063028E+00 -9.4652016267E+00 -4.5519043236E+01  4.6531980117E+01  5.0000000000E-01 0. 9.
       4    1   17    0  105    0 -6.9111090296E+00  4.1667736812E+01  1.6330957463E+01  4.5309092804E+01  1.5000000000E+00 0. 9.
      15    1   18    0    0    0  1.1083846034E+02 -3.2956730552E+01 -1.1873404412E+01  1.1625594970E+02  1.7770000000E+00 0. 9.
     -16    1   18    0    0    0  1.0308579293E+01  1.5437631831E+01  2.4523190738E+01  3.0756693053E+01  0.0000000000E+00 0. 9.
</event>
<event>
    20   259  1.000000E+00  9.928877E+02  7.976594E-03  9.280561E-02
       2   -1    0    0  101    0  0.0000000000E+00  0.0000000000E+00  1.8266469498E+03  1.8266469498E+03  0.0000000000E+00 0. 9.
      21   -1    0    0  102  101  0.0000000000E+00  0.0000000000E+00 -5.5722312430E+02  5.5722312430E+02  0.0000000000E+00 0. 9.
 2000002    2    1    2  103    0  1.4988435366E+02 -3.1285918700E+02  8.9352945542E+02  1.3789180676E+03  9.9129912700E+02 0. 9.
 1000021    2    1    2  102  103 -1.4988435366E+02  3.1285918700E+02  3.7589437008E+02  1.0049520065E+03  8.6503512500E+02 0. 9.
 1000021    2    3    0  103  104  9.3219695385E+01 -3.1347440757E+02  9.2998866635E+02  1.3115337597E+03  8.6503512500E+02 0. 9.
       2    1    3    0  104    0  5.6664658274E+01  6.1522057070E-01 -3.6459210936E+01  6.7384307934E+01  3.3000000000E-01 0. 9.
 1000023    2    4    0    0    0  3.2176009765E+01  2.6465325856E+01  3.3434257391E+02  4.3107305899E+02  2.6889276000E+02 0. 9.
       2    1    4    0  102    0 -2.9660647509E+02  3.2883919782E+02  7.0286637971E+01  4.4838704203E+02  3.3000000000E-01 0. 9.
      -2    1    4    0    0  103  1.1454611166E+02 -4.2445336670E+01 -2.8734841792E+01  1.2549190545E+02  3.3000000000E-01 0. 9.
 1000024    2    5    0    0    0 -2.2090742473E+02 -2.1659413767E+02  7.6657434793E+02  8.6932696124E+02  2.6903535800E+02 0. 9.
      -2    1    5    0    0  104  2.7443514452E+02 -8.0607433783E+01  2.2723667135E+02  3.6530647495E+02  3.3000000000E-01 0. 9.
       1    1    5    0  103    0  3.9691975596E+01 -1.6272836118E+01 -6.3822352938E+01  7.6900323514E+01  3.3000000000E-01 0. 9.
 1000022    1    7    0    0    0  2.0559363447E+01  8.8814357399E+01  2.2757290447E+02  2.7700395465E+02  1.2896157000E+02 0. 9.
      23    2    7    0    0    0  1.1616646317E+01 -6.2349031543E+01  1.0676966944E+02  1.5406910434E+02  9.1187600000E+01 0. 9.
 1000022    1   10    0    0    0 -3.3177727825E+01 -5.1680342990E+01  2.1024881660E+02  2.5417960361E+02  1.2896157000E+02 0. 9.
      24    2   10    0    0    0 -1.8772969691E+02 -1.6491379468E+02  5.5632553133E+02  6.1514735763E+02  8.0431188000E+01 0. 9.
       5    1   14    0  105    0 -2.4815893815E+01 -6.6568810246E+01  8.5983811036E+01  1.1164000557E+02  4.8000000000E+00 0. 9.
      -5    1   14    0    0  105  3.6432540132E+01  4.2197787033E+00  2.0785858403E+01  4.2429098769E+01  4.8000000000E+00 0. 9.
     -13    1   16    0    0    0 -2.1737001429E+01 -6.9815975085E+00  1.4967224945E+01  2.7299613944E+01  1.0566000000E-01 0. 9.
      14    1   16    0    0    0 -1.6599269548E+02 -1.5793219717E+02  5.4135830639E+02  5.8784774368E+02  0.0000000000E+00 0. 9.
</event>
<event>
    12   230  1.000000E+00  2.820845E+02  7.862966E-03  1.082285E-01
      -2   -1    0    0    0  101  0.0000000000E+00  0.0000000000E+00  9.6555103084E+01  9.6555103084E+01  0.0000000000E+00 0. 9.
       1   -1    0    0  101    0  0.0000000000E+00  0.0000000000E+00 -1.0843189016E+03  1.0843189016E+03  0.0000000000E+00 0. 9.
-1000024    2    1    2    0    0  5.1137395607E+01  6.7933677782E+01 -2.0473187781E+02  3.4860462339E+02  2.6903535800E+02 0. 9.
 1000023    2    1    2    0    0 -5.1137395607E+01 -6.7933677782E+01 -7.8303192072E+02  8.3226938131E+02  2.6889276000E+02 0. 9.
 1000022    1    3    0    0    0 -4.9998958841E+01  4.9642240442E+00 -9.9659635494E+01  1.7055107414E+02  1.2896157000E+02 0. 9.
     -24    2    3    0    0    0  1.0113635445E+02  6.2969453738E+01 -1.0507224231E+02  1.7805354926E+02  8.0431188000E+01 0. 9.
 1000022    1    4    0    0    0 -4.9671347062E+01 -5.7242660692E-01 -3.7713051431E+02  4.0165418179E+02  1.2896157000E+02 0. 9.
      25    2    4    0    0    0 -1.4660485454E+00 -6.7361251175E+01 -4.0590140642E+02  4.3061519952E+02  1.2701893900E+02 0. 9.
      11    1    6    0    0    0  3.4508122283E+01  5.5343294827E+01 -8.6750326289E+01  1.0853252921E+02  5.1000000000E-04 0. 9.
     -12    1    6    0    0    0  6.6628232164E+01  7.6261589103E+00 -1.8321916024E+01  6.9521020043E+01  0.0000000000E+00 0. 9.
       5    1    8    0  102    0  1.1146599848E+00 -9.6177103209E+01 -1.9288740881E+02  2.1559190644E+02  4.8000000000E+00 0. 9.
      -5    1    8    0    0  102 -2.5807085301E+00  2.8815852034E+01 -2.1301399761E+02  2.1502329307E+02  4.8000000000E+00 0. 9.
</event>
<event>
    11   238  1.000000E+00  6.608684E+02  7.939480E-03  9.729030E-02
      -2   -1    0    0    0  101  0.0000000000E+00  0.0000000000E+00  4.0545845694E+02  4.0545845694E+02  0.0000000000E+00 0. 9.
       2   -1    0    0  102    0  0.0000000000E+00  0.0000000000E+00 -8.9617927542E+02  8.9617927542E+02  0.0000000000E+00 0. 9.
 1000021    2    1    2  102  101  1.4316263476E+02 -7.7181427650E+01 -4.3743542317E+02  9.8289777174E+02  8.6503512500E+02 0. 9.
 1000023    2    1    2    0    0 -1.4316263476E+02  7.7181427650E+01 -5.3285395310E+01  3.1873996062E+02  2.6889276000E+02 0. 9.
 1000022    1    3    0    0    0  1.6226486270E+02  1.7459065960E+02 -2.4841550210E+02  3.6763178903E+02  1.2896157000E+02 0. 9.
       2    1    3    0  102    0  1.2747963212E+01  2.3417247625E+01  1.6421049293E+02  1.6636127236E+02  3.3000000000E-01 0. 9.
      -2    1    3    0    0  101 -3.1850191153E+01 -2.7518933487E+02 -3.5323041399E+02  4.4890471035E+02  3.3000000000E-01 0. 9.
 1000022    1    4    0    0    0 -7.2390991471E+01  7.5465603527E+01 -4.9586361160E+01  1.7327840809E+02  1.2896157000E+02 0. 9.
      25    2    4    0    0    0 -7.0771643287E+01  1.7158241228E+00 -3.6990341500E+00  1.4546155253E+02  1.2701893900E+02 0. 9.
       5    1    9    0  103    0 -8.5717994439E+01  4.4582182603E+01 -1.6306007523E+01  9.8102351948E+01  4.8000000000E+00 0. 9.
      -5    1    9    0    0  103  1.4946351153E+01 -4.2866358480E+01  1.2606973373E+01  4.7359200582E+01  4.8000000000E+00 0. 9.
</event>
<event>
    12   230  1.000000E+00  2.798982E+02  7.862274E-03  1.083398E-01
      -1   -1    0    0    0  101  0.0000000000E+00  0.0000000000E+00  2.5258158934E+02  2.5258158934E+02  0.0000000000E+00 0. 9.
       2   -1    0    0  101    0  0.0000000000E+00  0.0000000000E+00 -3.1608216187E+02  3.1608216187E+02  0.0000000000E+00 0. 9.
 1000023    2    1    2    0    0 -1.0796443129E+01 -7.6712126155E+01  7.1471159298E+00  2.7992090156E+02  2.6889276000E+02 0. 9.
 1000024    2    1    2    0    0  1.0796443129E+01  7.6712126155E+01 -7.0647688459E+01  2.8874284965E+02  2.6903535800E+02 0. 9.
 1000022    1    3    0    0    0 -3.2739018560E+01 -6.9752232769E+01  1.2298629873E+01  1.5073009038E+02  1.2896157000E+02 0. 9.
      25    2    3    0    0    0  2.1942575431E+01 -6.9598933861E+00 -5.1515139430E+00  1.2919081118E+02  1.2701893900E+02 0. 9.
 1000022    1    4    0    0    0 -4.9499745105E+01  9.4388966554E+01 -8.1506360365E+01  1.8610178691E+02  1.2896157000E+02 0. 9.
      24    2    4    0    0    0  6.0296188234E+01 -1.7676840398E+01  1.0858671907E+01  1.0264106274E+02  8.0431188000E+01 0. 9.
       5    1    6    0  102    0 -3.0990116885E+01  2.9860623890E+01 -3.7144273348E+01  5.7050690146E+01  4.8000000000E+00 0. 9.
      -5    1    6    0    0  102  5.2932692316E+01 -3.6820517276E+01  3.1992759405E+01  7.2140121033E+01  4.8000000000E+00 0. 9.
      -3    1    8    0    0  103  4.1650813095E+00 -3.8109129568E+01  1.8197848857E+01  4.2438960423E+01  5.0000000000E-01 0. 9.
       4    1    8    0  103    0  5.6131106924E+01  2.0432289170E+01 -7.3391769501E+00  6.0202102319E+01  1.5000000000E+00 0. 9.
</event>
<event>
    12   226  1.000000E+00  2.697675E+02  7.858994E-03  1.088704E-01
      -2   -1    0    0    0  101  0.0000000000E+00  0.0000000000E+00  1.1091965788E+03  1.1091965788E+03  0.0000000000E+00 0. 9.
       2   -1    0    0  101    0  0.0000000000E+00  0.0000000000E+00 -6.7743450757E+01  6.7743450757E+01  0.0000000000E+00 0. 9.
-1000024    2    1    2    0    0 -5.3040584048E+00  1.9139693072E+01  6.2515603363E+02  6.8087777987E+02  2.6903535800E+02 0. 9.
 1000024    2    1    2    0    0  5.3040584048E+00 -1.9139693072E+01  4.1629709438E+02  4.9606224965E+02  2.6903535800E+02 0. 9.
 1000022    1    3    0    0    0 -4.8915414063E+00  4.9012573486E+01  5.4920875412E+02  5.6629277028E+02  1.2896157000E+02 0. 9.
     -24    2    3    0    0    0 -4.1251699846E-01 -2.9872880414E+01  7.5947279511E+01  1.1458500959E+02  8.0431188000E+01 0. 9.
 1000022    1    4    0    0    0  6.9442466152E+01 -1.4508656246E+01  3.3134917285E+02  3.6256877706E+02  1.2896157000E+02 0. 9.
      24    2    4    0    0    0 -6.4138407747E+01 -4.6310368257E+00  8.4947921534E+01  1.3349347260E+02  8.0431188000E+01 0. 9.
       1    1    6    0  102    0  3.5602235015E+01 -3.2494201607E+00  5.3862343713E+01  6.4647806148E+01  3.3000000000E-01 0. 9.
      -2    1    6    0    0  102 -3.6014752013E+01 -2.6623460253E+01  2.2084935798E+01  4.9937203442E+01  3.3000000000E-01 0. 9.
     -13    1    8    0    0    0 -2.8818083836E+01  3.7938500822E+01  4.0632886318E+01  6.2616726321E+01  1.0566000000E-01 0. 9.
      14    1    8    0    0    0 -3.5320323911E+01 -4.2569537648E+01  4.4315035216E+01  7.0876746278E+01  0.0000000000E+00 0. 9.
</event>
<event>
    12   226  1.000000E+00  2.715330E+02  7.859575E-03  1.087761E-01
      -2   -1    0    0    0  101  0.0000000000E+00  0.0000000000E+00  5.1179278583E+01  5.1179278583E+01  0.0000000000E+00 0. 9.
       2   -1    0    0  101    0  0.0000000000E+00  0.0000000000E+00 -1.5258278561E+03  1.5258278561E+03  0.0000000000E+00 0. 9.
-1000024    2    1    2    0    0  1.1711740356E+01  3.4827518002E+01 -9.2365229754E+02  9.6273761300E+02  2.6903535800E+02 0. 9.
 1000024    2    1    2    0    0 -1.1711740356E+01 -3.4827518002E+01 -5.5099627998E+02  6.1426952169E+02  2.6903535800E+02 0. 9.
 1000022    1    3    0    0    0 -2.4420298944E+01  2.8295628364E+01 -7.9727564133E+02  8.0850264587E+02  1.2896157000E+02 0. 9.
     -24    2    3    0    0    0  3.6132039300E+01  6.5318896380E+00 -1.2637665621E+02  1.5423496712E+02  8.0431188000E+01 0. 9.
 1000022    1    4    0    0    0  6.8295263943E+00  4.9723028783E+01 -3.9523913931E+02  4.1876495292E+02  1.2896157000E+02 0. 9.
      24    2    4    0    0    0 -1.8541266750E+01 -8.4550546785E+01 -1.5575714068E+02  1.9550456877E+02  8.0431188000E+01 0. 9.
       1    1    6    0  102    0 -2.1791340375E+01  1.0245693189E+01 -1.4267426415E+01  2.7991161118E+01  3.3000000000E-01 0. 9.
      -2    1    6    0    0  102  5.7923379675E+01 -3.7138035515E+00 -1.1210922979E+02  1.2624380601E+02  3.3000000000E-01 0. 9.
      -3    1    8    0    0  103 -4.4714034958E+01 -7.7534856260E+01 -1.0519993189E+02  1.3812412725E+02  5.0000000000E-01 0. 9.
       4    1    8    0  103    0  2.6172768207E+01 -7.0156905256E+00 -5.0557208786E+01  5.7380441523E+01  1.5000000000E+00 0. 9.
</event>
<event>
    12   226  1.000000E+00  3.100428E+02  7.871387E-03  1.068944E-01
       1   -1    0    0  101    0  0.0000000000E+00  0.0000000000E+00  1.8149589547E+03  1.8149589547E+03  0.0000000000E+00 0. 9.
      -1   -1    0    0    0  101  0.0000000000E+00  0.0000000000E+00 -9.6423363067E+01  9.6423363067E+01  0.0000000000E+00 0. 9.
-1000024    2    1    2    0    0 -1.8009733072E+01  1.5304308307E+02  1.5008771102E+03  1.5325660376E+03  2.6903535800E+02 0. 9.
 1000024    2    1    2    0    0  1.8009733072E+01 -1.5304308307E+02  2.1765848149E+02  3.7881628024E+02  2.6903535800E+02 0. 9.
 1000022    1    3    0    0    0  2.8431683527E+01  1.0102053780E+02  1.2354399822E+03  1.2465779342E+03  1.2896157000E+02 0. 9.
     -24    2    3    0    0    0 -4.6441416599E+01  5.2022545271E+01  2.6543712794E+02  2.8598810340E+02  8.0431188000E+01 0. 9.
 1000022    1    4    0    0    0  4.2231605230E+01 -5.8982196556E-01  8.7413833607E+01  1.6141908565E+02  1.2896157000E+02 0. 9.
      24    2    4    0    0    0 -2.4221872158E+01 -1.5245326110E+02  1.3024464788E+02  2.1739719459E+02  8.0431188000E+01 0. 9.
      11    1    6    0    0    0 -1.4374092189E+01  8.5546688894E+00  2.0190561428E+02  2.0259731973E+02  5.1000000000E-04 0. 9.
     -12    1    6    0    0    0 -3.2067324409E+01  4.3467876381E+01  6.3531513668E+01  8.3390783668E+01  0.0000000000E+00 0. 9.
      -3    1    8    0    0  102  2.1902649895E+00 -3.2268019462E+01 -6.9628059304E+00  3.3087051956E+01  5.0000000000E-01 0. 9.
       4    1    8    0  102    0 -2.6412137148E+01 -1.2018524164E+02  1.3720745381E+02  1.8431014264E+02  1.5000000000E+00 0. 9.
</event>
<event>
    17   259  1.000000E+00  9.916453E+02  7.976479E-03  9.281877E-02
      21   -1    0    0  101  102  0.0000000000E+00  0.0000000000E+00  1.4269319904E+03  1.4269319904E+03  0.0000000000E+00 0. 9.
       2   -1    0    0  102    0  0.0000000000E+00  0.0000000000E+00 -1.0972818263E+03  1.0972818263E+03  0.0000000000E+00 0. 9.
 1000021    2    1    2  101  103  3.3142322135E+02 -8.9661140493E+01  9.2983895560E+02  1.3155860757E+03  8.6503512500E+02 0. 9.
 2000002    2    1    2  103    0 -3.3142322135E+02  8.9661140493E+01 -6.0018879147E+02  1.2086277410E+03  9.9129912700E+02 0. 9.
-1000024    2    3    0    0    0  3.1444334327E+02 -3.5406018259E+02  7.4403760292E+02  9.2206572837E+02  2.6903535800E+02 0. 9.
       6    2    3    0  101    0  3.4936667370E+01  1.5291332830E+02  1.1890900828E+02  2.6218437968E+02  1.7320000000E+02 0. 9.
      -5    1    3    0    0  103 -1.7956789284E+01  1.1148571380E+02  6.6892344395E+01  1.3133596766E+02  4.8000000000E+00 0. 9.
 1000022    1    4    0    0    0 -6.3981948330E+02 -1.2753772978E+02 -3.1565348248E+02  7.3614064639E+02  1.2896157000E+02 0. 9.
       2    1    4    0  103    0  3.0839626195E+02  2.1719887027E+02 -2.8453530899E+02  4.7248709463E+02  3.3000000000E-01 0. 9.
 1000022    1    5    0    0    0  9.4947877582E+01 -1.2201010961E+02  3.8740661565E+02  4.3659653994E+02  1.2896157000E+02 0. 9.
     -24    2    5    0    0    0  2.1949546569E+02 -2.3205007298E+02  3.5663098727E+02  4.8546918843E+02  8.0431188000E+01 0. 9.
      24    2    6    0    0    0  6.1589013885E+00  7.1927724508E+01 -8.5118794597E+00  1.0841198141E+02  8.0431188000E+01 0. 9.
       5    1    6    0  101    0  2.8777765981E+01  8.0985603788E+01  1.2742088774E+02  1.5377239826E+02  4.8000000000E+00 0. 9.
      11    1   11    0    0    0  1.0735796921E+02 -7.8544290635E+01  1.0161325792E+02  1.6739233355E+02  5.1000000000E-04 0. 9.
     -12    1   11    0    0    0  1.1213749648E+02 -1.5350578234E+02  2.5501772935E+02  3.1807685488E+02  0.0000000000E+00 0. 9.
      -1    1   12    0    0  104  2.1358738640E+01  1.3491748965E+00 -2.6444144013E+01  3.4020841285E+01  3.3000000000E-01 0. 9.
       2    1   12    0  104    0 -1.5199837251E+01  7.0578549611E+01  1.7932264553E+01  7.4391140129E+01  3.3000000000E-01 0. 9.
</event>
<event>
    17   258  1.000000E+00  1.112280E+03  7.987008E-03  9.162743E-02
      21   -1    0    0  101  102  0.0000000000E+00  0.0000000000E+00  1.0590171207E+03  1.0590171207E+03  0.0000000000E+00 0. 9.
       2   -1    0    0  102    0  0.0000000000E+00  0.0000000000E+00 -1.1948897919E+03  1.1948897919E+03  0.0000000000E+00 0. 9.
 1000021    2    1    2  101  103  2.8692425423E+02 -5.3773300632E+02  1.1150195102E+02  1.0640492312E+03  8.6503512500E+02 0. 9.
 1000002    2    1    2  103    0 -2.8692425423E+02  5.3773300632E+02 -2.4737462224E+02  1.1898576814E+03  9.9150632100E+02 0. 9.
 1000023    2    3    0    0    0  3.8999809962E+02 -5.7584261181E+02  1.8835064075E+02  7.6907250083E+02  2.6889276000E+02 0. 9.
       3    1    3    0  101    0 -6.7618985723E+00  2.8217442917E+01 -1.6288691296E+02  1.6545193795E+02  5.0000000000E-01 0. 9.
      -3    1    3    0    0  103 -9.6311946821E+01  9.8921625713E+00  8.6038223236E+01  1.2952479237E+02  5.0000000000E-01 0. 9.
 1000024    2    4    0    0    0  1.4342227295E+02 -7.3417768559E+01  1.4519478920E+02  3.4557440267E+02  2.6903535800E+02 0. 9.
       1    1    4    0  103    0 -4.3034652718E+02  6.1115077488E+02 -3.9256941144E+02  8.4428327876E+02  3.3000000000E-01 0. 9.
 1000022    1    5    0    0    0  2.4203041772E+02 -3.7857659087E+02  1.0098824648E+02  4.7825586324E+02  1.2896157000E+02 0. 9.
      25    2    5    0    0    0  1.4796768190E+02 -1.9726602093E+02  8.7362394264E+01  2.9081663759E+02  1.2701893900E+02 0. 9.
 1000022    1    8    0    0    0  1.1995710259E+02  3.1388666031E+01  7.3181018082E+01  1.9329123819E+02  1.2896157000E+02 0. 9.
      24    2    8    0    0    0  2.3465170363E+01 -1.0480643459E+02  7.2013771121E+01  1.5228316449E+02  8.0431188000E+01 0. 9.
       5    1   11    0  104    0  1.5625006466E+02 -1.9229079668E+02  1.0579893036E+02  2.6945553782E+02  4.8000000000E+00 0. 9.
      -5    1   11    0    0  104 -8.2823827551E+00 -4.9752242495E+00 -1.8436536093E+01  2.1361099774E+01  4.8000000000E+00 0. 9.
     -11    1   13    0    0    0  2.3588103924E+01 -6.9280914594E+01  1.3580324160E+00  7.3198961919E+01  5.1000000000E-04 0. 9.
      12    1   13    0    0    0 -1.2293356152E-01 -3.5525519996E+01  7.0655738705E+01  7.9084202567E+01  0.0000000000E+00 0. 9.
</event>
<event>
     9   259  1.000000E+00  9.624446E+02  7.973742E-03  9.313404E-02
      21   -1    0    0  101  102  0.0000000000E+00  0.0000000000E+00  5.2046773535E+02  5.2046773535E+02  0.0000000000E+00 0. 9.
       2   -1    0    0  102    0  0.0000000000E+00  0.0000000000E+00 -1.8290297684E+03  1.8290297684E+03  0.0000000000E+00 0. 9.
 1000021    2    1    2  101  103  8.4319427226E+01 -2.3175400168E+02 -4.0805653438E+02  9.8773254773E+02  8.6503512500E+02 0. 9.
 2000002    2    1    2  103    0 -8.4319427226E+01  2.3175400168E+02 -9.0050549862E+02  1.3617649560E+03  9.9129912700E+02 0. 9.
 1000022    1    3    0    0    0  1.0351336805E+02 -4.6937208216E+02 -1.1452512546E+02  5.1065865289E+02  1.2896157000E+02 0. 9.
       2    1    3    0  101    0  2.2223165822E+01 -3.1635686352E+01  3.3699953274E+01  5.1288219902E+01  3.3000000000E-01 0. 9.
      -2    1    3    0    0  103 -4.1417106648E+01  2.6925376683E+02 -3.2723136219E+02  4.2578567493E+02  3.3000000000E-01 0. 9.
 1000022    1    4    0    0    0  4.0166015251E+02 -9.0943430027E+01 -3.0731038874E+02  5.2978518962E+02  1.2896157000E+02 0. 9.
       2    1    4    0  103    0 -4.8597957973E+02  3.2269743171E+02 -5.9319510988E+02  8.3197976636E+02  3.3000000000E-01 0. 9.
</event>
<event>
    12   230  1.000000E+00  3.959960E+02  7.893274E-03  1.035883E-01
       2   -1    0    0  101    0  0.0000000000E+00  0.0000000000E+00  7.8392240248E+02  7.8392240248E+02  0.0000000000E+00 0. 9.
      -1   -1    0    0    0  101  0.0000000000E+00  0.0000000000E+00 -2.3004972962E+02  2.3004972962E+02  0.0000000000E+00 0. 9.
 1000024    2    1    2    0    0  1.7307158274E+02  2.3348963429E+02  4.6008915519E+02  6.0706938372E+02  2.6903535800E+02 0. 9.
 1000023    2    1    2    0    0 -1.7307158274E+02 -2.3348963429E+02  9.3783517667E+01  4.0690274838E+02  2.6889276000E+02 0. 9.
 1000022    1    3    0    0    0  1.0589601389E+02  8.7071858984E+01  1.2282056442E+02  2.2474752939E+02  1.2896157000E+02 0. 9.
      24    2    3    0    0    0  6.7175568846E+01  1.4641777531E+02  3.3726859077E+02  3.8232185433E+02  8.0431188000E+01 0. 9.
 1000022    1    4    0    0    0 -9.1395278409E+01 -1.6886639099E+02  6.3697338710E+01  2.3991121778E+02  1.2896157000E+02 0. 9.
      25    2    4    0    0    0 -8.1676304328E+01 -6.4623243308E+01  3.0086178957E+01  1.6699153060E+02  1.2701893900E+02 0. 9.
      -1    1    6    0    0  102  4.6929154980E+01  7.0214453648E+01  9.2913467647E+01  1.2556048924E+02  3.3000000000E-01 0. 9.
       2    1    6    0  102    0  2.0246413866E+01  7.6203321663E+01  2.4435512312E+02  2.5676136509E+02  3.3000000000E-01 0. 9.
       5    1    8    0  103    0 -3.3770767894E+01 -3.2731923709E+01 -4.9638552764E+01  6.8548300594E+01  4.8000000000E+00 0. 9.
      -5    1    8    0    0  103 -4.7905536435E+01 -3.1891319599E+01  7.9724731721E+01  9.8443230010E+01  4.8000000000E+00 0. 9.
</event>
<event>
    24   259  1.000000E+00  1.068574E+03  7.983328E-03  9.203994E-02
      21   -1    0    0  101  102  0.0000000000E+00  0.0000000000E+00  5.5489794171E+02  5.5489794171E+02  0.0000000000E+00 0. 9.
       2   -1    0    0  102    0  0.0000000000E+00  0.0000000000E+00 -2.2789899629E+03  2.2789899629E+03  0.0000000000E+00 0. 9.
 1000021    2    1    2  101  103  3.6863109818E+02  3.7480795429E+02 -3.7577962246E+02  1.0797527408E+03  8.6503512500E+02 0. 9.
 2000002    2    1    2  103    0 -3.6863109818E+02 -3.7480795429E+02 -1.3483123987E+03  1.7541351638E+03  9.9129912700E+02 0. 9.
 1000024    2    3    0    0    0  1.2171357801E+02  1.7059252608E+02 -1.2155254453E+01  3.4123859555E+02  2.6903535800E+02 0. 9.
      -6    2    3    0    0  103  4.0949056426E+02  1.6990983902E+02 -2.5541466958E+02  5.4017290662E+02  1.7320000000E+02 0. 9.
       5    1    3    0  101    0 -1.6257304408E+02  3.4305589196E+01 -1.0820969842E+02  1.9834123864E+02  4.8000000000E+00 0. 9.
 1000021    2    4    0  103  104 -4.1583999855E+02 -4.0525953719E+02 -1.1673666277E+03  1.5646689131E+03  8.6503512500E+02 0. 9.
       2    1    4    0  104    0  4.7208900370E+01  3.0451582895E+01 -1.8094577108E+02  1.8946625068E+02  3.3000000000E-01 0. 9.
 1000022    1    5    0    0    0 -2.0495533205E+01  6.1489972690E+01  1.0412655907E+00  1.4433729384E+02  1.2896157000E+02 0. 9.
      24    2    5    0    0    0  1.4220911122E+02  1.0910255339E+02 -1.3196520043E+01  1.9690130170E+02  8.0431188000E+01 0. 9.
     -24    2    6    0    0    0  1.9945663577E+02  1.0112067547E+02 -2.0402341590E+02  3.1321409738E+02  8.0431188000E+01 0. 9.
      -5    1    6    0    0  103  2.1003392849E+02  6.8789163549E+01 -5.1391253685E+01  2.2695880924E+02  4.8000000000E+00 0. 9.
 1000024    2    8    0    0    0 -2.6294812370E+02 -3.1771821326E+02 -1.2784172172E+02  5.0873382870E+02  2.6903535800E+02 0. 9.
      -4    1    8    0    0  104 -9.9161733244E+00 -2.4198830779E+01 -2.2630908804E+02  2.2782003256E+02  1.5000000000E+00 0. 9.
       3    1    8    0  103    0 -1.4297570153E+02 -6.3342493154E+01 -8.1321581791E+02  8.2811505189E+02  5.0000000000E-01 0. 9.
     -15    1   11    0    0    0  3.2035161930E+01 -1.7211404884E+00 -2.4230141769E+01  4.0242656766E+01  1.7770000000E+00 0. 9.
      16    1   11    0    0    0  1.1017394929E+02  1.1082369387E+02  1.1033621726E+01  1.5665864494E+02  0.0000000000E+00 0. 9.
       3    1   12    0  105    0  3.6628969003E+01  5.7239915143E+01 -4.5674506249E+01  8.1881009868E+01  5.0000000000E-01 0. 9.
      -4    1   12    0    0  105  1.6282766677E+02  4.3880760331E+01 -1.5834890965E+02  2.3133308751E+02  1.5000000000E+00 0. 9.
 1000022    1   14    0    0    0 -1.1987907561E+02 -2.5816398810E+02 -4.5831955443E+01  3.1583427965E+02  1.2896157000E+02 0. 9.
      24    2   14    0    0    0 -1.4306904810E+02 -5.9554225152E+01 -8.2009766274E+01  1.9289954905E+02  8.0431188000E+01 0. 9.
      -3    1   22    0    0  106 -1.1324330332E+02 -7.5450321988E+01 -8.2432450711E+01  1.5909794394E+02  5.0000000000E-01 0. 9.
       2    1   22    0  106    0 -2.9825744776E+01  1.5896096837E+01  4.2268443710E-01  3.3801605113E+01  3.3000000000E-01 0. 9.
</event>
<event>
    19   273  1.000000E+00  1.314963E+03  8.002411E-03  8.994409E-02
       1   -1    0    0  101    0  0.0000000000E+00  0.0000000000E+00  7.7485383609E+02  7.7485383609E+02  0.0000000000E+00 0. 9.
       2   -1    0    0  102    0  0.0000000000E+00  0.0000000000E+00 -2.9788074146E+03  2.9788074146E+03  0.0000000000E+00 0. 9.
 2000001    2    1    2  102    0  5.6964833875E+02 -6.4911112896E+02 -1.6200126852E+02  1.3249787872E+03  9.9170554500E+02 0. 9.
 1000002    2    1    2  101    0 -5.6964833875E+02  6.4911112896E+02 -2.0419523100E+03  2.4286824635E+03  9.9150632100E+02 0. 9.
 1000022    1    3    0    0    0  2.5669632660E+02 -8.2956860805E+02 -3.1494470474E+02  9.3268340456E+02  1.2896157000E+02 0. 9.
       1    1    3    0  102    0  3.1295201216E+02  1.8045747909E+02  1.5294343622E+02  3.9229538266E+02  3.3000000000E-01 0. 9.
 1000021    2    4    0  101  103 -5.1920844953E+02  7.0611071255E+02 -1.8519258851E+03  2.2239795422E+03  8.6503512500E+02 0. 9.
       2    1    4    0  103    0 -5.0439889221E+01 -5.6999583588E+01 -1.9002642488E+02  2.0470292134E+02  3.3000000000E-01 0. 9.
-1000024    2    7    0    0    0 -5.6813549714E+02  3.8817981298E+02 -1.3058155206E+03  1.5003318659E+03  2.6903535800E+02 0. 9.
       6    2    7    0  101    0  1.1671518631E+01  3.5299051951E+02 -3.6941689052E+02  5.3963470071E+02  1.7320000000E+02 0. 9.
      -5    1    7    0    0  103  3.7255528980E+01 -3.5059619932E+01 -1.7669347405E+02  1.8401297552E+02  4.8000000000E+00 0. 9.
 1000022    1    9    0    0    0 -1.4230055531E+02  9.5125028341E+01 -3.3930056449E+02  4.0131555995E+02  1.2896157000E+02 0. 9.
     -24    2    9    0    0    0 -4.2583494184E+02  2.9305478464E+02 -9.6651495609E+02  1.0990163060E+03  8.0431188000E+01 0. 9.
      24    2   10    0    0    0 -8.9066500593E+00  3.5453058471E+02 -3.6952360517E+02  5.1844781289E+02  8.0431188000E+01 0. 9.
       5    1   10    0  101    0  2.0578168690E+01 -1.5400651999E+00  1.0671465262E-01  2.1186887820E+01  4.8000000000E+00 0. 9.
      15    1   13    0    0    0 -4.8832465949E+01  6.8521796858E+01 -1.4493111768E+02  1.6759484770E+02  1.7770000000E+00 0. 9.
     -16    1   13    0    0    0 -3.7700247589E+02  2.2453298778E+02 -8.2158383842E+02  9.3142145830E+02  0.0000000000E+00 0. 9.
     -11    1   14    0    0    0  2.8530451380E+01  1.4922174965E+02 -1.2317508947E+02  1.9558430379E+02  5.1000000000E-04 0. 9.
      12    1   14    0    0    0 -3.7437101439E+01  2.0530883505E+02 -2.4634851570E+02  3.2286350909E+02  0.0000000000E+00 0. 9.
</event>
<event>
    12   230  1.000000E+00  2.788469E+02  7.861939E-03  1.083937E-01
       2   -1    0    0  101    0  0.0000000000E+00  0.0000000000E+00  2.0318841476E+02  2.0318841476E+02  0.0000000000E+00 0. 9.
      -1   -1    0    0    0  101  0.0000000000E+00  0.0000000000E+00 -4.1675840826E+02  4.1675840826E+02  0.0000000000E+00 0. 9.
 1000024    2    1    2    0    0 -7.2427197896E+01  1.2970991861E+01 -1.8167379736E+01  2.7950674977E+02  2.6903535800E+02 0. 9.
 1000023    2    1    2    0    0  7.2427197896E+01 -1.2970991861E+01 -1.9540261377E+02  3.4044007325E+02  2.6889276000E+02 0. 9.
 1000022    1    3    0    0    0 -2.7258779220E+01 -2.3767857082E+00 -9.1663184202E+01  1.6056748123E+02  1.2896157000E+02 0. 9.
      24    2    3    0    0    0 -4.5168418676E+01  1.5347777569E+01  7.3495804466E+01  1.1893926853E+02  8.0431188000E+01 0. 9.
 1000022    1    4    0    0    0 -3.2717313521E+01  2.1985815719E+01 -8.5274038369E+01  1.5955107914E+02  1.2896157000E+02 0. 9.
      23    2    4    0    0    0  1.0514451142E+02 -3.4956807581E+01 -1.1012857540E+02  1.8088899411E+02  9.1187600000E+01 0. 9.
     -15    1    6    0    0    0 -1.0411876342E+01 -1.4284469717E+00  7.9210993314E+01  7.9924882361E+01  1.7770000000E+00 0. 9.
      16    1    6    0    0    0 -3.4756542334E+01  1.6776224541E+01 -5.7151888472E+00  3.9014386172E+01  0.0000000000E+00 0. 9.
       3    1    8    0  102    0  7.6018901516E+01 -1.8376754694E+01 -1.2235092379E+02  1.4521217943E+02  5.0000000000E-01 0. 9.
      -3    1    8    0    0  102  2.9125609901E+01 -1.6580052887E+01  1.2222348393E+01  3.5676814685E+01  5.0000000000E-01 0. 9.
</event>
<event>
    19   273  1.000000E+00  1.429328E+03  8.010107E-03  8.912834E-02
       2   -1    0    0  101    0  0.0000000000E+00  0.0000000000E+00  1.6136571238E+03  1.6136571238E+03  0.0000000000E+00 0. 9.
       2   -1    0    0  102    0  0.0000000000E+00  0.0000000000E+00 -1.3019898434E+03  1.3019898434E+03  0.0000000000E+00 0. 9.
 1000002    2    1    2  101    0 -8.4271017511E+01 -1.0261561799E+03 -8.6352802942E+01  1.4320054822E+03  9.9150632100E+02 0. 9.
 2000002    2    1    2  102    0  8.4271017511E+01  1.0261561799E+03  3.9802008326E+02  1.4836414850E+03  9.9129912700E+02 0. 9.
 1000024    2    3    0    0    0 -3.4787552981E+02 -5.7626110298E+02  2.9847791097E+02  7.8394089716E+02  2.6903535800E+02 0. 9.
       1    1    3    0  101    0  2.6360451229E+02 -4.4989507696E+02 -3.8483071391E+02  6.4806458508E+02  3.3000000000E-01 0. 9.
 1000021    2    4    0  102  103  1.8634702328E+02  8.7725881489E+02  3.7745308253E+02  1.3019465574E+03  8.6503512500E+02 0. 9.
       2    1    4    0  103    0 -1.0207600577E+02  1.4889736505E+02  2.0567000725E+01  1.8169492753E+02  3.3000000000E-01 0. 9.
 1000022    1    5    0    0    0 -2.2178950736E+02 -2.7952383374E+02  8.4496035200E+01  3.8870917883E+02  1.2896157000E+02 0. 9.
      24    2    5    0    0    0 -1.2608602244E+02 -2.9673726924E+02  2.1398187577E+02  3.9523171833E+02  8.0431188000E+01 0. 9.
 1000023    2    7    0    0    0  4.0933891028E+02  5.5222108874E+02  4.2575054505E+02  8.5209935882E+02  2.6889276000E+02 0. 9.
       4    1    7    0  102    0 -1.4935181840E+02  1.8153085237E+02  7.5070148506E+01  2.4677356669E+02  1.5000000000E+00 0. 9.
      -4    1    7    0    0  103 -7.3640068596E+01  1.4350687378E+02 -1.2336761103E+02  2.0307363190E+02  1.5000000000E+00 0. 9.
      -1    1   10    0    0  104 -1.3667309760E+02 -2.5624433274E+02  1.8541965676E+02  3.4455950384E+02  3.3000000000E-01 0. 9.
       2    1   10    0  104    0  1.0587075162E+01 -4.0492936493E+01  2.8562219015E+01  5.0672214490E+01  3.3000000000E-01 0. 9.
 1000022    1   11    0    0    0  3.3311264871E+02  3.3148929130E+02  2.7455028727E+02  5.5933722722E+02  1.2896157000E+02 0. 9.
      23    2   11    0    0    0  7.6226261565E+01  2.2073179744E+02  1.5120025778E+02  2.9276213160E+02  9.1187600000E+01 0. 9.
       5    1   17    0  105    0  1.5844666789E+01  4.8616910157E+01 -6.2763068555E+00  5.1740597663E+01  4.8000000000E+00 0. 9.
      -5    1   17    0    0  105  6.0381594776E+01  1.7211488729E+02  1.5747656464E+02  2.4102153394E+02  4.8000000000E+00 0. 9.
</event>
<event>
    13   259  1.000000E+00  9.896245E+02  7.976292E-03  9.284022E-02
      21   -1    0    0  101  102  0.0000000000E+00  0.0000000000E+00  4.7939957166E+02  4.7939957166E+02  0.0000000000E+00 0. 9.
       2   -1    0    0  102    0  0.0000000000E+00  0.0000000000E+00 -2.1077011795E+03  2.1077011795E+03  0.0000000000E+00 0. 9.
 1000021    2    1    2  101  103 -3.3036557355E+02 -6.8814223595E+01 -1.0058642361E+03  1.3689139632E+03  8.6503512500E+02 0. 9.
 2000002    2    1    2  103    0  3.3036557355E+02  6.8814223595E+01 -6.2243737173E+02  1.2181867880E+03  9.9129912700E+02 0. 9.
 1000024    2    3    0    0    0 -1.4917032942E+02  2.6644967819E+02 -3.9893735179E+02  5.6989319411E+02  2.6903535800E+02 0. 9.
      -2    1    3    0    0  103 -1.8947447119E+02 -3.6898759679E+02 -3.5870376422E+02  5.4838027060E+02  3.3000000000E-01 0. 9.
       1    1    3    0  101    0  8.2792270626E+00  3.3723695004E+01 -2.4822312012E+02  2.5064049846E+02  3.3000000000E-01 0. 9.
 1000022    1    4    0    0    0 -4.9829795547E+01  4.6445466062E+02 -1.9382775259E+02  5.2192089870E+02  1.2896157000E+02 0. 9.
       2    1    4    0  103    0  3.8019536909E+02 -3.9564043702E+02 -4.2860961914E+02  6.9626588930E+02  3.3000000000E-01 0. 9.
 1000022    1    5    0    0    0 -1.2629365229E+02  7.1918310087E+01 -1.7172407830E+02  2.5931173429E+02  1.2896157000E+02 0. 9.
      24    2    5    0    0    0 -2.2876677132E+01  1.9453136810E+02 -2.2721327350E+02  3.1058145983E+02  8.0431188000E+01 0. 9.
     -11    1   11    0    0    0 -1.6948245897E+01  1.6595794053E+02 -1.3731819431E+02  2.1606843257E+02  5.1000000000E-04 0. 9.
      12    1   11    0    0    0 -5.9284312343E+00  2.8573427579E+01 -8.9895079187E+01  9.4513027263E+01  0.0000000000E+00 0. 9.
</event>
<event>
    12   230  1.000000E+00  3.040209E+02  7.869638E-03  1.071686E-01
      -1   -1    0    0    0  101  0.0000000000E+00  0.0000000000E+00  1.1204875229E+02  1.1204875229E+02  0.0000000000E+00 0. 9.
       2   -1    0    0  101    0  0.0000000000E+00  0.0000000000E+00 -8.9073771317E+02  8.9073771317E+02  0.0000000000E+00 0. 9.
 1000023    2    1    2    0    0  2.2757507288E+01  1.3988968187E+02 -2.5295255269E+02  3.9544321656E+02  2.6889276000E+02 0. 9.
 1000024    2    1    2    0    0 -2.2757507288E+01 -1.3988968187E+02 -5.2573640819E+02  6.0734324890E+02  2.6903535800E+02 0. 9.
 1000022    1    3    0    0    0  1.3268025734E+01  1.1369711241E+02 -1.2471029231E+02  2.1280699571E+02  1.2896157000E+02 0. 9.
      25    2    3    0    0    0  9.4894815539E+00  2.6192569456E+01 -1.2824226038E+02  1.8263622085E+02  1.2701893900E+02 0. 9.
 1000022    1    4    0    0    0 -4.5231993114E+01 -2.7077704372E+00 -3.0627949556E+02  3.3539749724E+02  1.2896157000E+02 0. 9.
      24    2    4    0    0    0  2.2474485826E+01 -1.3718191143E+02 -2.1945691263E+02  2.7194575166E+02  8.0431188000E+01 0. 9.
       5    1    6    0  102    0 -4.1211855760E+01  3.5058148815E+01 -1.1804950757E+02  1.2994697800E+02  4.8000000000E+00 0. 9.
      -5    1    6    0    0  102  5.0701337314E+01 -8.8655793590E+00 -1.0192752814E+01  5.2689242856E+01  4.8000000000E+00 0. 9.
     -15    1    8    0    0    0 -2.8390034314E+01 -5.2441961220E+01 -1.0461551302E+02  1.2043137730E+02  1.7770000000E+00 0. 9.
      16    1    8    0    0    0  5.0864520140E+01 -8.4739950213E+01 -1.1484139962E+02  1.5151437436E+02  0.0000000000E+00 0. 9.
</event>
<event>
    22   272  1.000000E+00  1.009676E+03  7.978130E-03  9.262973E-02
       2   -1    0    0  101    0  0.0000000000E+00  0.0000000000E+00  1.3035477473E+03  1.3035477473E+03  0.0000000000E+00 0. 9.
       2   -1    0    0  102    0  0.0000000000E+00  0.0000000000E+00 -7.8206977151E+02  7.8206977151E+02  0.0000000000E+00 0. 9.
 2000002    2    1    2  101    0  1.9104217206E+02 -1.6585439000E+01  2.5622037266E+02  1.0416789461E+03  9.9129912700E+02 0. 9.
 2000002    2    1    2  102    0 -1.9104217206E+02  1.6585439000E+01  2.6525760313E+02  1.0439385727E+03  9.9129912700E+02 0. 9.
 1000021    2    3    0  101  103  1.1893464777E+02  9.3249803735E+01  2.2884411727E+02  9.0746700977E+02  8.6503512500E+02 0. 9.
       2    1    3    0  103    0  7.2107524291E+01 -1.0983524274E+02  2.7376255393E+01  1.3421193637E+02  3.3000000000E-01 0. 9.
 1000021    2    4    0  102  104 -2.8211777319E+02  3.7314633706E+01  2.0705839551E+02  9.3388530692E+02  8.6503512500E+02 0. 9.
       2    1    4    0  104    0  9.1075601131E+01 -2.0729194706E+01  5.8199207623E+01  1.1005326575E+02  3.3000000000E-01 0. 9.
-1000024    2    5    0    0    0 -1.3866704006E+02  3.5763734987E+01  4.9573701636E+01  3.0878012969E+02  2.6903535800E+02 0. 9.
       6    2    5    0  101    0  2.3746053580E+02  1.9618514788E+02  2.5830161405E+02  4.3771461266E+02  1.7320000000E+02 0. 9.
      -5    1    5    0    0  103  2.0141152036E+01 -1.3869907913E+02 -7.9031198424E+01  1.6097226743E+02  4.8000000000E+00 0. 9.
 1000022    1    7    0    0    0 -4.3288045157E+02 -4.3247155195E+01  4.3306851128E+02  6.2724415005E+02  1.2896157000E+02 0. 9.
       2    1    7    0  102    0  1.4164903639E+02  2.2965376114E+01 -1.9001457860E+02  2.3811238311E+02  3.3000000000E-01 0. 9.
      -2    1    7    0    0  104  9.1136419810E+00  5.7596412788E+01 -3.5995537171E+01  6.8528773756E+01  3.3000000000E-01 0. 9.
 1000022    1    9    0    0    0 -7.1773840962E+01  9.7008848164E+01 -3.0157991986E+00  1.7664196118E+02  1.2896157000E+02 0. 9.
     -24    2    9    0    0    0 -6.6893199102E+01 -6.1245113178E+01  5.2589500835E+01  1.3213816850E+02  8.0431188000E+01 0. 9.
      24    2   10    0    0    0  6.6817807352E+01  6.8190528876E+01  1.5960959360E+02  2.0263012111E+02  8.0431188000E+01 0. 9.
       5    1   10    0  101    0  1.7064272845E+02  1.2799461900E+02  9.8692020454E+01  2.3508449155E+02  4.8000000000E+00 0. 9.
       3    1   16    0  105    0 -3.5448318440E+01 -4.6940898449E-01  5.2911913147E+01  6.3692418528E+01  5.0000000000E-01 0. 9.
      -4    1   16    0    0  105 -3.1444880662E+01 -6.0775704193E+01 -3.2241231236E-01  6.8445749976E+01  1.5000000000E+00 0. 9.
      -3    1   17    0    0  106  6.6352139798E+01  1.5282759314E+01  1.1386424969E+02  1.3267059412E+02  5.0000000000E-01 0. 9.
       4    1   17    0  106    0  4.6566755464E-01  5.2907769562E+01  4.5745343913E+01  6.9959526986E+01  1.5000000000E+00 0. 9.
</event>
<event>
    11   276  1.000000E+00  1.232900E+03  7.996475E-03  9.058472E-02
       2   -1    0    0  101    0  0.0000000000E+00  0.0000000000E+00  1.8263701180E+03  1.8263701180E+03  0.0000000000E+00 0. 9.
      -2   -1    0    0    0  101  0.0000000000E+00  0.0000000000E+00 -1.1092966416E+03  1.1092966416E+03  0.0000000000E+00 0. 9.
 1000002    2    1    2  102    0 -6.4139323522E+02  3.5465285036E+02  1.0920703988E+03  1.6470781606E+03  9.9150632100E+02 0. 9.
-2000002    2    1    2    0  102  6.4139323522E+02 -3.5465285036E+02 -3.7499692238E+02  1.2885885990E+03  9.9129912700E+02 0. 9.
 1000021    2    3    0  102  103 -6.8578975825E+02  3.9225884941E+02  1.0635655869E+03  1.5822869912E+03  8.6503512500E+02 0. 9.
       2    1    3    0  103    0  4.4396523026E+01 -3.7605999056E+01  2.8504811882E+01  6.4791169322E+01  3.3000000000E-01 0. 9.
 1000022    1    4    0    0    0  3.0942974179E+02  6.7498449184E+01  2.7972184460E+02  4.4178977198E+02  1.2896157000E+02 0. 9.
      -2    1    4    0    0  102  3.3196349343E+02 -4.2215129954E+02 -6.5471876698E+02  8.4679882700E+02  3.3000000000E-01 0. 9.
 1000022    1    5    0    0    0  1.0025258348E+02  2.0721030652E+02  7.8991518800E+01  2.7542229067E+02  1.2896157000E+02 0. 9.
       4    1    5    0  102    0 -7.3763528161E+02  1.5319081473E+02  7.4185574005E+02  1.0573199248E+03  1.5000000000E+00 0. 9.
      -4    1    5    0    0  103 -4.8407060114E+01  3.1857728168E+01  2.4271832807E+02  2.4954477573E+02  1.5000000000E+00 0. 9.
</event>
<event>
    17   258  1.000000E+00  1.021530E+03  7.979199E-03  9.250769E-02
      21   -1    0    0  101  102  0.0000000000E+00  0.0000000000E+00  7.7280619602E+02  7.7280619602E+02  0.0000000000E+00 0. 9.
       2   -1    0    0  102    0  0.0000000000E+00  0.0000000000E+00 -1.3660291960E+03  1.3660291960E+03  0.0000000000E+00 0. 9.
 1000021    2    1    2  101  103  4.1354080787E+02 -8.2597827922E+01 -4.0935046079E+02  1.0457972883E+03  8.6503512500E+02 0. 9.
 1000002    2    1    2  103    0 -4.1354080787E+02  8.2597827922E+01 -1.8387253918E+02  1.0930381037E+03  9.9150632100E+02 0. 9.
-1000024    2    3    0    0    0  3.3040170621E+02 -8.0850345833E+01 -3.8092853866E+02  5.7722494862E+02  2.6903535800E+02 0. 9.
       4    1    3    0  101    0  1.9085065355E+02 -1.6863567108E+02  4.1401681221E+01  2.5802773248E+02  1.5000000000E+00 0. 9.
      -3    1    3    0    0  103 -1.0771155189E+02  1.6688818899E+02 -6.9823603353E+01  2.1054460719E+02  5.0000000000E-01 0. 9.
 1000023    2    4    0    0    0 -5.9744645817E+02  3.4246843664E+02 -2.2324998072E+02  7.7225045856E+02  2.6889276000E+02 0. 9.
       2    1    4    0  103    0  1.8390565030E+02 -2.5987060872E+02  3.9377441545E+01  3.2078764516E+02  3.3000000000E-01 0. 9.
 1000022    1    5    0    0    0  6.1125505972E+01 -3.5749992685E+01 -1.5615754305E+02  2.1454755707E+02  1.2896157000E+02 0. 9.
     -24    2    5    0    0    0  2.6927620023E+02 -4.5100353147E+01 -2.2477099561E+02  3.6267739154E+02  8.0431188000E+01 0. 9.
 1000022    1    8    0    0    0 -2.2323243281E+02  1.4371911480E+02 -1.1562373469E+02  3.1699816652E+02  1.2896157000E+02 0. 9.
      25    2    8    0    0    0 -3.7421402536E+02  1.9874932184E+02 -1.0762624603E+02  4.5525229204E+02  1.2701893900E+02 0. 9.
      15    1   11    0    0    0  2.2886986013E+02 -2.0036314849E+01 -2.1388302331E+02  3.1389802832E+02  1.7770000000E+00 0. 9.
     -16    1   11    0    0    0  4.0406340101E+01 -2.5064038298E+01 -1.0887972297E+01  4.8779363228E+01  0.0000000000E+00 0. 9.
       5    1   13    0  104    0 -1.3305704517E+02  6.0388514602E+00 -4.0582911976E+01  1.3932213658E+02  4.8000000000E+00 0. 9.
      -5    1   13    0    0  104 -2.4115698019E+02  1.9271047038E+02 -6.7043334054E+01  3.1593015546E+02  4.8000000000E+00 0. 9.
</event>
<event>
    26   271  1.000000E+00  9.921583E+02  7.976526E-03  9.281333E-02
       2   -1    0    0  101    0  0.0000000000E+00  0.0000000000E+00  1.6435596410E+03  1.6435596410E+03  0.0000000000E+00 0. 9.
       2   -1    0    0  102    0  0.0000000000E+00  0.0000000000E+00 -1.0068603550E+03  1.0068603550E+03  0.0000000000E+00 0. 9.
 1000002    2    1    2  102    0 -2.5632509208E+01  2.5225733071E+01  1.1618645852E+03  1.5278440568E+03  9.9150632100E+02 0. 9.
 1000002    2    1    2  101    0  2.5632509208E+01 -2.5225733071E+01 -5.2516529923E+02  1.1225759392E+03  9.9150632100E+02 0. 9.
 1000021    2    3    0  102  103  3.3286510799E+01  1.0341000715E+02  9.2278069506E+02  1.2694926546E+03  8.6503512500E+02 0. 9.
       2    1    3    0  103    0 -5.8919020007E+01 -7.8184274080E+01  2.3908389013E+02  2.5835140226E+02  3.3000000000E-01 0. 9.
 1000021    2    4    0  101  104 -6.0687472204E+01  6.0027528269E+01 -4.3927817977E+02  9.7392882704E+02  8.6503512500E+02 0. 9.
       2    1    4    0  104    0  8.6319981411E+01 -8.5253261340E+01 -8.5887119458E+01  1.4864711214E+02  3.3000000000E-01 0. 9.
-1000024    2    5    0    0    0 -5.0169854899E+01 -1.3711026299E+02  1.8623841617E+02  3.5830295850E+02  2.6903535800E+02 0. 9.
       2    1    5    0  102    0 -1.8392578198E+02  1.6604140013E+02  2.5621515254E+02  3.5643337824E+02  3.3000000000E-01 0. 9.
      -1    1    5    0    0  103  2.6738214768E+02  7.4478870003E+01  4.8032712636E+02  5.5475631784E+02  3.3000000000E-01 0. 9.
-1000024    2    7    0    0    0 -8.6301707646E+01  3.4109709442E+02 -2.7848339053E+02  5.2319043877E+02  2.6903535800E+02 0. 9.
       6    2    7    0  101    0  5.4386687566E+01 -9.5688324411E+01 -1.6455061703E+02  2.6303861461E+02  1.7320000000E+02 0. 9.
      -5    1    7    0    0  104 -2.8772452124E+01 -1.8538124174E+02  3.7558277835E+00  1.8769977366E+02  4.8000000000E+00 0. 9.
 1000022    1    9    0    0    0 -6.3966858346E+01 -2.1654300477E+01  1.5666404595E+02  2.1385831180E+02  1.2896157000E+02 0. 9.
     -24    2    9    0    0    0  1.3797003446E+01 -1.1545596251E+02  2.9574370221E+01  1.4444464670E+02  8.0431188000E+01 0. 9.
 1000022    1   12    0    0    0 -6.9746221215E+01  2.9238257798E+02 -2.7552519451E+02  4.2766497007E+02  1.2896157000E+02 0. 9.
     -24    2   12    0    0    0 -1.6555486431E+01  4.8714516438E+01 -2.9581960191E+00  9.5525468696E+01  8.0431188000E+01 0. 9.
      24    2   13    0    0    0  4.8629849401E+01 -6.5515649748E+01 -1.9066276985E+02  2.2243792488E+02  8.0431188000E+01 0. 9.
       5    1   13    0  101    0  5.7568381648E+00 -3.0172674663E+01  2.6112152821E+01  4.0600689734E+01  4.8000000000E+00 0. 9.
       3    1   16    0  105    0  2.9132380685E+01 -2.6058964875E+01  3.6478926456E+01  5.3467067716E+01  5.0000000000E-01 0. 9.
      -4    1   16    0    0  105 -1.5335377238E+01 -8.9396997633E+01 -6.9045562342E+00  9.0977578983E+01  1.5000000000E+00 0. 9.
       3    1   18    0  106    0 -5.2314583837E+00  5.1666018756E+01 -3.4164923442E+01  6.2162992565E+01  5.0000000000E-01 0. 9.
      -4    1   18    0    0  106 -1.1324028047E+01 -2.9515023175E+00  3.1206727423E+01  3.3362476131E+01  1.5000000000E+00 0. 9.
      -1    1   19    0    0  107 -1.1932734682E+00 -3.8609731550E-01 -1.0070752962E+02  1.0071587956E+02  3.3000000000E-01 0. 9.
       2    1   19    0  107    0  4.9823122869E+01 -6.5129552433E+01 -8.9955240225E+01  1.2172204532E+02  3.3000000000E-01 0. 9.
</event>
<event>
    11   237  1.000000E+00  9.448731E+02  7.972056E-03  9.332947E-02
       2   -1    0    0  101    0  0.0000000000E+00  0.0000000000E+00  1.6756041476E+03  1.6756041476E+03  0.0000000000E+00 0. 9.
      -2   -1    0    0    0  102  0.0000000000E+00  0.0000000000E+00 -5.5590370554E+02  5.5590370554E+02  0.0000000000E+00 0. 9.
 1000021    2    1    2  101  102 -5.9456256303E+02 -3.9600774487E+02  3.5401431940E+02  1.1764092320E+03  8.6503512500E+02 0. 9.
 1000022    1    1    2    0    0  5.9456256303E+02  3.9600774487E+02  7.6568612265E+02  1.0550986211E+03  1.2896157000E+02 0. 9.
 1000024    2    3    0    0    0 -3.7980357232E+02  2.4777091316E+01 -1.6748615646E+01  4.6639596673E+02  2.6903535800E+02 0. 9.
      -4    1    3    0    0  102 -1.4185254725E+02 -4.8618294354E+02  2.9427728126E+02  5.8574513913E+02  1.5000000000E+00 0. 9.
       3    1    3    0  101    0 -7.2906443453E+01  6.5398107356E+01  7.6485653792E+01  1.2426812616E+02  5.0000000000E-01 0. 9.
 1000022    1    5    0    0    0 -1.7388259724E+02 -4.3995945991E+01  4.7843026938E+01  2.2603283534E+02  1.2896157000E+02 0. 9.
      24    2    5    0    0    0 -2.0592097508E+02  6.8773037307E+01 -6.4591642584E+01  2.4036313140E+02  8.0431188000E+01 0. 9.
      -3    1    9    0    0  103 -1.4382974383E+02  6.8194874469E+01 -7.7314623730E+01  1.7696140019E+02  5.0000000000E-01 0. 9.
       4    1    9    0  103    0 -6.2091231256E+01  5.7816283812E-01  1.2722981146E+01  6.3401731210E+01  1.5000000000E+00 0. 9.
</event>
<event>
    12   230  1.000000E+00  2.843314E+02  7.863673E-03  1.081152E-01
      -2   -1    0    0    0  101  0.0000000000E+00  0.0000000000E+00  1.1322758780E+02  1.1322758780E+02  0.0000000000E+00 0. 9.
       1   -1    0    0  101    0  0.0000000000E+00  0.0000000000E+00 -8.6081326753E+02  8.6081326753E+02  0.0000000000E+00 0. 9.
-1000024    2    1    2    0    0  6.4441988322E+01  6.5953722248E+01 -1.7273606203E+02  3.3274680211E+02  2.6903535800E+02 0. 9.
 1000023    2    1    2    0    0 -6.4441988322E+01 -6.5953722248E+01 -5.7484961770E+02  6.4129405321E+02  2.6889276000E+02 0. 9.
 1000022    1    3    0    0    0  1.0600977363E+02  4.3986180751E+01 -1.6574119620E+02  2.3932005109E+02  1.2896157000E+02 0. 9.
     -24    2    3    0    0    0 -4.1567785307E+01  2.1967541497E+01 -6.9948658307E+00  9.3426751018E+01  8.0431188000E+01 0. 9.
 1000022    1    4    0    0    0 -2.2295820655E+01 -7.2447590581E+01 -2.8088683657E+02  3.1823616780E+02  1.2896157000E+02 0. 9.
      25    2    4    0    0    0 -4.2146167667E+01  6.4938683329E+00 -2.9396278113E+02  3.2305788542E+02  1.2701893900E+02 0. 9.
      13    1    6    0    0    0 -6.3191309665E+01  1.2359439499E+00 -5.1890277631E+00  6.3416136336E+01  1.0566000000E-01 0. 9.
     -14    1    6    0    0    0  2.1623524358E+01  2.0731597547E+01 -1.8058380676E+00  3.0010614682E+01  0.0000000000E+00 0. 9.
       5    1    8    0  102    0 -2.8800018732E+01 -2.8860249221E+01 -2.7920352232E+02  2.8220560225E+02  4.8000000000E+00 0. 9.
      -5    1    8    0    0  102 -1.3346148935E+01  3.5354117554E+01 -1.4759258810E+01  4.0852283168E+01  4.8000000000E+00 0. 9.
</event>
<event>
    15   272  1.000000E+00  1.029763E+03  7.979935E-03  9.242395E-02
       2   -1    0    0  101    0  0.0000000000E+00  0.0000000000E+00  4.2597625430E+02  4.2597625430E+02  0.0000000000E+00 0. 9.
       2   -1    0    0  102    0  0.0000000000E+00  0.0000000000E+00 -2.5520707284E+03  2.5520707284E+03  0.0000000000E+00 0. 9.
 2000002    2    1    2  101    0 -1.9496040421E+01  2.7813159637E+02 -8.2964672634E+02  1.3223936366E+03  9.9129912700E+02 0. 9.
 2000002    2    1    2  102    0  1.9496040421E+01 -2.7813159637E+02 -1.2964477477E+03  1.6556533461E+03  9.9129912700E+02 0. 9.
 1000022    1    3    0    0    0 -1.1824612957E+02  6.2093960465E+02 -3.8110261843E+02  7.4927860779E+02  1.2896157000E+02 0. 9.
       2    1    3    0  101    0  9.8750089154E+01 -3.4280800828E+02 -4.4854410792E+02  5.7311502885E+02  3.3000000000E-01 0. 9.
 1000021    2    4    0  102  103  2.1102870010E+01 -1.3130279044E+02 -1.1748311219E+03  1.4649913605E+03  8.6503512500E+02 0. 9.
       2    1    4    0  103    0 -1.6068295886E+00 -1.4682880593E+02 -1.2161662587E+02  1.9066198557E+02  3.3000000000E-01 0. 9.
-1000024    2    7    0    0    0  1.2050814850E+02  1.5819529508E+01 -4.0246672734E+02  4.9913120704E+02  2.6903535800E+02 0. 9.
       2    1    7    0  102    0 -1.1142114864E+02 -3.1950813450E+02 -7.0196521504E+02  7.7926593176E+02  3.3000000000E-01 0. 9.
      -1    1    7    0    0  103  1.2015870148E+01  1.7238581456E+02 -7.0399179495E+01  1.8659422169E+02  3.3000000000E-01 0. 9.
 1000022    1    9    0    0    0  1.2595303115E+02  5.4984832664E+01 -1.8576457634E+02  2.6462626899E+02  1.2896157000E+02 0. 9.
     -24    2    9    0    0    0 -5.4448826517E+00 -3.9165303156E+01 -2.1670215100E+02  2.3450493805E+02  8.0431188000E+01 0. 9.
       1    1   13    0  104    0  4.7186662283E+00  1.0130131658E+01 -1.5257250588E+02  1.5298158003E+02  3.3000000000E-01 0. 9.
      -2    1   13    0    0  104 -1.0163548880E+01 -4.9295434814E+01 -6.4129645121E+01  8.1523358019E+01  3.3000000000E-01 0. 9.
</event>
<event>
    18   244  1.000000E+00  8.727906E+02  7.964802E-03  9.418057E-02
      21   -1    0    0  101  102  0.0000000000E+00  0.0000000000E+00  1.0066862980E+03  1.0066862980E+03  0.0000000000E+00 0. 9.
      21   -1    0    0  102  103  0.0000000000E+00  0.0000000000E+00 -1.1557938930E+03  1.1557938930E+03  0.0000000000E+00 0. 9.
 1000021    2    1    2  101  104  1.1209927985E+02  3.0190323065E+01 -7.0991011230E+02  1.1250492608E+03  8.6503512500E+02 0. 9.
 1000021    2    1    2  104  103 -1.1209927985E+02 -3.0190323065E+01  5.6080251724E+02  1.0374309302E+03  8.6503512500E+02 0. 9.
-1000024    2    3    0    0    0  3.4959584519E+02 -2.2476735669E+02 -2.7927277378E+02  5.6842847012E+02  2.6903535800E+02 0. 9.
       2    1    3    0  101    0 -2.1230822001E+02  2.0550470794E+02 -3.4115191859E+02  4.5132217509E+02  3.3000000000E-01 0. 9.
      -1    1    3    0    0  104 -2.5188345336E+01  4.9452971816E+01 -8.9485419926E+01  1.0529861557E+02  3.3000000000E-01 0. 9.
 1000024    2    4    0    0    0  2.5904403926E+02 -3.2884662144E+01  3.2648879668E+02  4.9715206274E+02  2.6903535800E+02 0. 9.
      -4    1    4    0    0  103 -3.5612845705E+02  8.2312769697E+01  9.2647294158E+01  3.7707909129E+02  1.5000000000E+00 0. 9.
       3    1    4    0  104    0 -1.5014862063E+01 -7.9618430618E+01  1.4166642640E+02  1.6319977618E+02  5.0000000000E-01 0. 9.
 1000022    1    5    0    0    0  8.6269384626E+01 -3.0616209418E+01 -8.5819168468E+01  1.7993269635E+02  1.2896157000E+02 0. 9.
     -24    2    5    0    0    0  2.6332646057E+02 -1.9415114727E+02 -1.9345360531E+02  3.8849577377E+02  8.0431188000E+01 0. 9.
 1000022    1    8    0    0    0  8.0585498557E+01  4.2656980669E+01  9.3190618852E+01  1.8338271063E+02  1.2896157000E+02 0. 9.
      24    2    8    0    0    0  1.7845854070E+02 -7.5541642814E+01  2.3329817783E+02  3.1376935212E+02  8.0431188000E+01 0. 9.
       1    1   12    0  105    0  1.7128896008E+02 -1.6483358128E+02 -1.5876699100E+02  2.8586200114E+02  3.3000000000E-01 0. 9.
      -2    1   12    0    0  105  9.2037500483E+01 -2.9317565995E+01 -3.4686614308E+01  1.0263377262E+02  3.3000000000E-01 0. 9.
      -1    1   14    0    0  106  9.6581343958E+01  2.5571684589E+00  1.1084035259E+02  1.4703804872E+02  3.3000000000E-01 0. 9.
       2    1   14    0  106    0  8.1877196745E+01 -7.8098811273E+01  1.2245782524E+02  1.6673130340E+02  3.3000000000E-01 0. 9.
</event>
<event>
    22   244  1.000000E+00  1.048184E+03  7.981561E-03  9.223952E-02
      21   -1    0    0  101  102  0.0000000000E+00  0.0000000000E+00  8.4040259867E+02  8.4040259867E+02  0.0000000000E+00 0. 9.
      21   -1    0    0  102  103  0.0000000000E+00  0.0000000000E+00 -1.3096256917E+03  1.3096256917E+03  0.0000000000E+00 0. 9.
 1000021    2    1    2  104  103 -4.5450621905E+02  3.7924556817E+02 -1.8966511160E+02  1.0652050160E+03  8.6503512500E+02 0. 9.
 1000021    2    1    2  101  104  4.5450621905E+02 -3.7924556817E+02 -2.7955798148E+02  1.0848232744E+03  8.6503512500E+02 0. 9.
 1000024    2    3    0    0    0 -2.3103341333E+01  2.9573796456E+02 -2.1421864483E+01  4.0104068147E+02  2.6903535800E+02 0. 9.
      -2    1    3    0    0  103 -3.8809786412E+02  1.8146687564E+02  3.9695464868E+01  4.3026273127E+02  3.3000000000E-01 0. 9.
       1    1    3    0  104    0 -4.3305013602E+01 -9.7959272033E+01 -2.0793871198E+02  2.3390160329E+02  3.3000000000E-01 0. 9.
-1000024    2    4    0    0    0  1.4244517763E+02  6.7467645654E+01 -2.6447784260E+02  4.0886558295E+02  2.6903535800E+02 0. 9.
       6    2    4    0  101    0  4.4657628101E+01 -3.1110314379E+01 -6.3271387014E+00  1.8166019953E+02  1.7320000000E+02 0. 9.
      -5    1    4    0    0  104  2.6740341333E+02 -4.1560289944E+02 -8.7530001736E+00  4.9429749190E+02  4.8000000000E+00 0. 9.
 1000022    1    5    0    0    0  1.1676240033E+01  2.2060090228E+02 -8.4633854062E+01  2.6943472022E+02  1.2896157000E+02 0. 9.
      24    2    5    0    0    0 -3.4779581365E+01  7.5137062279E+01  6.3211989579E+01  1.3160596125E+02  8.0431188000E+01 0. 9.
 1000022    1    8    0    0    0  1.3508959372E+02 -1.8723919571E+01 -1.2231885557E+02  2.2403743540E+02  1.2896157000E+02 0. 9.
     -24    2    8    0    0    0  7.3555839103E+00  8.6191565224E+01 -1.4215898703E+02  1.8482814755E+02  8.0431188000E+01 0. 9.
      24    2    9    0    0    0  2.7519486143E+01  3.2770559538E+01  4.1284900026E+01  1.0002425038E+02  8.0431188000E+01 0. 9.
       5    1    9    0  101    0  1.7138141958E+01 -6.3880873917E+01 -4.7612038727E+01  8.1635949152E+01  4.8000000000E+00 0. 9.
     -11    1   12    0    0    0 -2.1603580405E+01  6.1538554500E+01  8.2105598576E+01  1.0485722528E+02  5.1000000000E-04 0. 9.
      12    1   12    0    0    0 -1.3176000960E+01  1.3598507778E+01 -1.8893608997E+01  2.6748735971E+01  0.0000000000E+00 0. 9.
       3    1   14    0  105    0 -2.9143861043E+01  1.5607439103E+01 -1.8639452226E+01  3.7955710652E+01  5.0000000000E-01 0. 9.
      -2    1   14    0    0  105  3.6499444953E+01  7.0584126122E+01 -1.2351953481E+02  1.4687243690E+02  3.3000000000E-01 0. 9.
     -15    1   15    0    0    0  5.6660685202E+00 -2.6889475218E+01  1.3719301741E+01  3.0765649338E+01  1.7770000000E+00 0. 9.
      16    1   15    0    0    0  2.1853417623E+01  5.9660034756E+01  2.7565598285E+01  6.9258601038E+01  0.0000000000E+00 0. 9.
</event>
<event>
    11   238  1.000000E+00  7.730458E+02  7.953734E-03  9.551260E-02
      -2   -1    0    0    0  101  0.0000000000E+00  0.0000000000E+00  5.0387626353E+02  5.0387626353E+02  0.0000000000E+00 0. 9.
       2   -1    0    0  102    0  0.0000000000E+00  0.0000000000E+00 -1.2103452057E+03  1.2103452057E+03  0.0000000000E+00 0. 9.
 1000021    2    1    2  102  101 -4.0207156096E+02 -1.6013681255E+02 -1.8431401940E+02  9.8466378226E+02  8.6503512500E+02 0. 9.
 1000023    2    1    2    0    0  4.0207156096E+02  1.6013681255E+02 -5.2215492280E+02  7.2955768699E+02  2.6889276000E+02 0. 9.
 1000022    1    3    0    0    0  5.7212232490E+01 -6.8279064862E+00  1.7518147917E+02  2.2503221332E+02  1.2896157000E+02 0. 9.
       2    1    3    0  102    0 -4.7619878889E+02 -1.3484836407E+02 -1.0758805077E+02  5.0648264077E+02  3.3000000000E-01 0. 9.
      -2    1    3    0    0  101  1.6914995439E+01 -1.8460541991E+01 -2.5190744779E+02  2.5314892817E+02  3.3000000000E-01 0. 9.
 1000022    1    4    0    0    0  2.0620073867E+02  3.8376778711E+01 -2.5061069841E+02  3.5132368333E+02  1.2896157000E+02 0. 9.
      25    2    4    0    0    0  1.9587082228E+02  1.2176003383E+02 -2.7154422439E+02  3.7823400366E+02  1.2701893900E+02 0. 9.
       5    1    9    0  103    0  8.1226968558E+01  1.2318312570E+02 -1.3706687123E+02  2.0145041591E+02  4.8000000000E+00 0. 9.
      -5    1    9    0    0  103  1.1464385372E+02 -1.4230918688E+00 -1.3447735316E+02  1.7678358775E+02  4.8000000000E+00 0. 9.
</event>
<event>
    13   259  1.000000E+00  9.393294E+02  7.971517E-03  9.339205E-02
      21   -1    0    0  101  102  0.0000000000E+00  0.0000000000E+00  1.0024068246E+03  1.0024068246E+03  0.0000000000E+00 0. 9.
       2   -1    0    0  102    0  0.0000000000E+00  0.0000000000E+00 -8.7846708930E+02  8.7846708930E+02  0.0000000000E+00 0. 9.
 1000021    2    1    2  101  103 -6.9929627188E+01  1.0940638621E+02  1.0421670556E+02  8.8091248107E+02  8.6503512500E+02 0. 9.
 2000002    2    1    2  103    0  6.9929627188E+01 -1.0940638621E+02  1.9723029772E+01  9.9996143285E+02  9.9129912700E+02 0. 9.
 1000024    2    3    0    0    0 -7.9232441783E+01  3.1219585935E+02 -1.9764540017E+02  4.6388335009E+02  2.6903535800E+02 0. 9.
      -4    1    3    0    0  103 -6.6324175849E+01 -7.5926551478E+01  2.3338186335E+02  2.5423037124E+02  1.5000000000E+00 0. 9.
       3    1    3    0  101    0  7.5626990443E+01 -1.2686292166E+02  6.8480242387E+01  1.6279875974E+02  5.0000000000E-01 0. 9.
 1000022    1    4    0    0    0  1.5987183050E+02  3.4344095096E+02  2.6224221097E+02  4.7844827592E+02  1.2896157000E+02 0. 9.
       2    1    4    0  103    0 -8.9942203308E+01 -4.5284733716E+02 -2.4251918119E+02  5.2151315694E+02  3.3000000000E-01 0. 9.
 1000022    1    5    0    0    0  1.9837808166E+01  2.3010286490E+02 -9.6723728082E+01  2.8165126163E+02  1.2896157000E+02 0. 9.
      24    2    5    0    0    0 -9.9070249948E+01  8.2092994449E+01 -1.0092167209E+02  1.8223208846E+02  8.0431188000E+01 0. 9.
     -13    1   11    0    0    0 -1.1056808460E+01 -1.2282557079E+01  2.6816203484E+00  1.6742654313E+01  1.0566000000E-01 0. 9.
      14    1   11    0    0    0 -8.8013441488E+01  9.4375551528E+01 -1.0360329244E+02  1.6548943414E+02  0.0000000000E+00 0. 9.
</event>
<event>
    12   230  1.000000E+00  2.697923E+02  7.859003E-03  1.088690E-01
      -1   -1    0    0    0  101  0.0000000000E+00  0.0000000000E+00  1.0104112360E+02  1.0104112360E+02  0.0000000000E+00 0. 9.
       2   -1    0    0  101    0  0.0000000000E+00  0.0000000000E+00 -8.5055470458E+02  8.5055470458E+02  0.0000000000E+00 0. 9.
 1000023    2    1    2    0    0 -1.7531318216E+01 -1.1784154208E+01 -1.8853442361E+02  3.2908168998E+02  2.6889276000E+02 0. 9.
 1000024    2    1    2    0    0  1.7531318216E+01  1.1784154208E+01 -5.6097915737E+02  6.2251413820E+02  2.6903535800E+02 0. 9.
 1000022    1    3    0    0    0  2.9845492581E+01 -1.6741491578E+01 -1.0480915985E+02  1.6966754991E+02  1.2896157000E+02 0. 9.
      25    2    3    0    0    0 -4.7376810797E+01  4.9573373703E+00 -8.3725263765E+01  1.5941414006E+02  1.2701893900E+02 0. 9.
 1000022    1    4    0    0    0  3.1739145247E+01 -4.4861713802E+01 -4.5973956488E+02  4.8063655787E+02  1.2896157000E+02 0. 9.
      24    2    4    0    0    0 -1.4207827031E+01  5.6645868010E+01 -1.0123959248E+02  1.4187758033E+02  8.0431188000E+01 0. 9.
      21    1    6    0  102  103  2.5029254913E+01  9.0426227876E-01 -8.3205092908E+01  8.6892858035E+01  0.0000000000E+00 0. 9.
      21    1    6    0  103  102 -7.2406065710E+01  4.0530750916E+00 -5.2017085726E-01  7.2521282028E+01  0.0000000000E+00 0. 9.
      -3    1    8    0    0  104 -3.4009345245E+01 -3.8790791048E+00 -4.7420744881E+01  5.8486407513E+01  5.0000000000E-01 0. 9.
       4    1    8    0  104    0  1.9801518215E+01  6.0524947115E+01 -5.3818847602E+01  8.3391172819E+01  1.5000000000E+00 0. 9.
</event>
<event>
    12   226  1.000000E+00  3.079032E+02  7.870769E-03  1.069911E-01
       2   -1    0    0  101    0  0.0000000000E+00  0.0000000000E+00  1.6956974003E+03  1.6956974003E+03  0.0000000000E+00 0. 9.
      -2   -1    0    0    0  101  0.0000000000E+00  0.0000000000E+00 -7.1166957764E+01  7.1166957764E+01  0.0000000000E+00 0. 9.
 1000024    2    1    2    0    0  5.0152221835E+01 -1.4109970252E+02  4.0320696629E+02  5.0732657424E+02  2.6903535800E+02 0. 9.
-1000024    2    1    2    0    0 -5.0152221835E+01  1.4109970252E+02  1.2213234762E+03  1.2595377838E+03  2.6903535800E+02 0. 9.
 1000022    1    3    0    0    0  6.7439770241E+01 -1.2400494369E+02  3.7094440863E+02  4.1732024813E+02  1.2896157000E+02 0. 9.
      24    2    3    0    0    0 -1.7287548407E+01 -1.7094758835E+01  3.2262557666E+01  9.0006326110E+01  8.0431188000E+01 0. 9.
 1000022    1    4    0    0    0 -5.7586471618E+01  1.7007441116E+02  8.3206019842E+02  8.6092785260E+02  1.2896157000E+02 0. 9.
     -24    2    4    0    0    0  7.4342497837E+00 -2.8974708634E+01  3.8926327778E+02  3.9860993119E+02  8.0431188000E+01 0. 9.
     -13    1    6    0    0    0 -3.4895565347E+01 -8.1052416299E+00  5.1293184324E+01  6.2565144809E+01  1.0566000000E-01 0. 9.
      14    1    6    0    0    0  1.7608016941E+01 -8.9895172051E+00 -1.9030626659E+01  2.7441181301E+01  0.0000000000E+00 0. 9.
       1    1    8    0  102    0  4.2163071646E+01 -2.7093811882E+00  1.9583222955E+02  2.0033830485E+02  3.3000000000E-01 0. 9.
      -2    1    8    0    0  102 -3.4728821862E+01 -2.6265327446E+01  1.9343104823E+02  1.9827162634E+02  3.3000000000E-01 0. 9.
</event>
<event>
    15   272  1.000000E+00  1.169794E+03  7.991641E-03  9.111385E-02
       2   -1    0    0  101    0  0.0000000000E+00  0.0000000000E+00  1.0819510763E+03  1.0819510763E+03  0.0000000000E+00 0. 9.
       1   -1    0    0  102    0  0.0000000000E+00  0.0000000000E+00 -1.3927982569E+03  1.3927982569E+03  0.0000000000E+00 0. 9.
 2000002    2    1    2  102    0 -5.9018953111E+02 -1.9240065890E+02  2.1975248443E+02  1.1900868917E+03  9.9129912700E+02 0. 9.
 2000001    2    1    2  101    0  5.9018953111E+02  1.9240065890E+02 -5.3059966496E+02  1.2846624415E+03  9.9170554500E+02 0. 9.
 1000022    1    3    0    0    0 -7.0176664138E+02 -4.7936425364E+02  1.9332064823E+02  8.8106212391E+02  1.2896157000E+02 0. 9.
       2    1    3    0  102    0  1.1157711027E+02  2.8696359474E+02  2.6431836201E+01  3.0902476779E+02  3.3000000000E-01 0. 9.
 1000021    2    4    0  101  103  4.9450080920E+02  2.1593317019E+02 -3.4820958102E+02  1.0773550316E+03  8.6503512500E+02 0. 9.
       1    1    4    0  103    0  9.5688721916E+01 -2.3532511285E+01 -1.8239008394E+02  2.0730740992E+02  3.3000000000E-01 0. 9.
 1000024    2    7    0    0    0  1.3832044378E+02 -7.6736237623E+01  1.7674219230E+01  3.1259142217E+02  2.6903535800E+02 0. 9.
      -2    1    7    0    0  103  3.1333914123E+02 -5.7117368943E+01 -1.9059683481E+02  3.7117525996E+02  3.3000000000E-01 0. 9.
       1    1    7    0  101    0  4.2841224181E+01  3.4978677675E+02 -1.7528696543E+02  3.9358834946E+02  3.3000000000E-01 0. 9.
 1000022    1    9    0    0    0  1.5360962834E+02 -1.8433023753E+01  4.9049575356E+01  2.0729843623E+02  1.2896157000E+02 0. 9.
      24    2    9    0    0    0 -1.5289184561E+01 -5.8303213870E+01 -3.1375356125E+01  1.0529298594E+02  8.0431188000E+01 0. 9.
     -13    1   13    0    0    0  2.1029199121E+01 -6.0572564159E+01 -1.9761416480E+01  6.7095361165E+01  1.0566000000E-01 0. 9.
      14    1   13    0    0    0 -3.6318383682E+01  2.2693502894E+00 -1.1613939646E+01  3.8197624771E+01  0.0000000000E+00 0. 9.
</event>
<event>
    12   226  1.000000E+00  2.756142E+02  7.860901E-03  1.085611E-01
       2   -1    0    0  101    0  0.0000000000E+00  0.0000000000E+00  9.4164242691E+02  9.4164242691E+02  0.0000000000E+00 0. 9.
      -2   -1    0    0    0  101  0.0000000000E+00  0.0000000000E+00 -1.2092160765E+02  1.2092160765E+02  0.0000000000E+00 0. 9.
 1000024    2    1    2    0    0 -5.9857669456E+01 -4.9204957152E-01  7.1688092743E+02  7.6803741489E+02  2.6903535800E+02 0. 9.
-1000024    2    1    2    0    0  5.9857669456E+01  4.9204957152E-01  1.0383989183E+02  2.9452661967E+02  2.6903535800E+02 0. 9.
 1000022    1    3    0    0    0  1.0383748527E+01  6.7218784334E+01  4.4304938079E+02  4.6642258474E+02  1.2896157000E+02 0. 9.
      24    2    3    0    0    0 -7.0241417983E+01 -6.7710833905E+01  2.7383154664E+02  3.0161483015E+02  8.0431188000E+01 0. 9.
 1000022    1    4    0    0    0  6.2605735788E+01 -7.7861614861E+01  6.6390902820E+01  1.7612707837E+02  1.2896157000E+02 0. 9.
     -24    2    4    0    0    0 -2.7480663318E+00  7.8353664432E+01  3.7448989009E+01  1.1839954130E+02  8.0431188000E+01 0. 9.
      -3    1    6    0    0  102 -8.7418843178E+01 -6.0332533120E+01  2.1396706347E+02  2.3888119002E+02  5.0000000000E-01 0. 9.
       4    1    6    0  102    0  1.7177425195E+01 -7.3783007853E+00  5.9864483175E+01  6.2733640135E+01  1.5000000000E+00 0. 9.
       1    1    8    0  103    0 -2.6238895892E+01  7.8296958910E+01  4.4587319215E+01  9.3845785025E+01  3.3000000000E-01 0. 9.
      -2    1    8    0    0  103  2.3490829560E+01  5.6705522487E-02 -7.1383302069E+00  2.4553756272E+01  3.3000000000E-01 0. 9.
</event>
<event>
    12   230  1.000000E+00  3.139559E+02  7.872506E-03  1.067198E-01
       1   -1    0    0  101    0  0.0000000000E+00  0.0000000000E+00  5.0324267195E+02  5.0324267195E+02  0.0000000000E+00 0. 9.
      -2   -1    0    0    0  101  0.0000000000E+00  0.0000000000E+00 -2.3823769779E+02  2.3823769779E+02  0.0000000000E+00 0. 9.
 1000023    2    1    2    0    0  1.5367051782E+02 -5.1107866174E+01 -2.3869655864E+01  3.1480107828E+02  2.6889276000E+02 0. 9.
-1000024    2    1    2    0    0 -1.5367051782E+02  5.1107866174E+01  2.8887463002E+02  4.2667929146E+02  2.6903535800E+02 0. 9.
 1000022    1    3    0    0    0  6.0822310182E+01  1.0326792849E+01  6.8637733924E+00  1.4312300300E+02  1.2896157000E+02 0. 9.
      25    2    3    0    0    0  9.2848207643E+01 -6.1434659023E+01 -3.0733429256E+01  1.7167807528E+02  1.2701893900E+02 0. 9.
 1000022    1    4    0    0    0 -1.0162303246E+02 -5.2976267093E+01  1.6164441421E+02  2.3641854577E+02  1.2896157000E+02 0. 9.
     -24    2    4    0    0    0 -5.2047485361E+01  1.0408413327E+02  1.2723021581E+02  1.9026074568E+02  8.0431188000E+01 0. 9.
     -15    1    6    0    0    0  3.3713830607E+01 -2.2305078302E+01 -7.7005180665E+01  8.6989047992E+01  1.7770000000E+00 0. 9.
      15    1    6    0    0    0  5.9134377036E+01 -3.9129580721E+01  4.6271751409E+01  8.4689027283E+01  1.7770000000E+00 0. 9.
       1    1    8    0  102    0  1.5509744637E+01 -1.9789275408E+00  1.2219266930E+01  1.9846604678E+01  3.3000000000E-01 0. 9.
      -2    1    8    0    0  102 -6.7557229998E+01  1.0606306081E+02  1.1501094888E+02  1.7041414101E+02  3.3000000000E-01 0. 9.
</event>
<event>
    12   230  1.000000E+00  3.037478E+02  7.869558E-03  1.071812E-01
      -2   -1    0    0    0  101  0.0000000000E+00  0.0000000000E+00  9.1756733364E+02  9.1756733364E+02  0.0000000000E+00 0. 9.
       1   -1    0    0  101    0  0.0000000000E+00  0.0000000000E+00 -1.1546775244E+02  1.1546775244E+02  0.0000000000E+00 0. 9.
-1000024    2    1    2    0    0  1.1290020223E+02  8.4703053585E+01  5.8676823331E+02  6.6075566318E+02  2.6903535800E+02 0. 9.
 1000023    2    1    2    0    0 -1.1290020223E+02 -8.4703053585E+01  2.1533134789E+02  3.7227942290E+02  2.6889276000E+02 0. 9.
 1000022    1    3    0    0    0  1.4268327735E+02  7.7730295791E+01  4.8488867789E+02  5.2739798350E+02  1.2896157000E+02 0. 9.
     -24    2    3    0    0    0 -2.9783075113E+01  6.9727577941E+00  1.0187955542E+02  1.3335767968E+02  8.0431188000E+01 0. 9.
 1000022    1    4    0    0    0 -4.4750528914E+01 -7.8570691843E+01  9.1526623417E+01  1.8216523484E+02  1.2896157000E+02 0. 9.
      25    2    4    0    0    0 -6.8149673319E+01 -6.1323617421E+00  1.2380472447E+02  1.9011418806E+02  1.2701893900E+02 0. 9.
       1    1    6    0  102    0  1.6246445036E+01 -1.0945977994E+01  7.4184127174E+01  7.6727798320E+01  3.3000000000E-01 0. 9.
      -2    1    6    0    0  102 -4.6029520149E+01  1.7918735788E+01  2.7695428250E+01  5.6629881365E+01  3.3000000000E-01 0. 9.
       5    1    8    0  103    0 -2.9534291047E+01  2.0262686949E+01 -1.8247053753E+01  4.0482660494E+01  4.8000000000E+00 0. 9.
      -5    1    8    0    0  103 -3.8615382272E+01 -2.6395048691E+01  1.4205177823E+02  1.4963152756E+02  4.8000000000E+00 0. 9.
</event>
<event>
    19   271  1.000000E+00  1.188854E+03  7.993127E-03  9.095043E-02
       1   -1    0    0  101    0  0.0000000000E+00  0.0000000000E+00  1.9845941611E+03  1.9845941611E+03  0.0000000000E+00 0. 9.
       1   -1    0    0  102    0  0.0000000000E+00  0.0000000000E+00 -7.8365635423E+02  7.8365635423E+02  0.0000000000E+00 0. 9.
 1000001    2    1    2  101    0 -3.4230798034E+02  5.5455212659E+02  1.8243019272E+02  1.2027693834E+03  9.9431916400E+02 0. 9.
 1000001    2    1    2  102    0  3.4230798034E+02 -5.5455212659E+02  1.0185076142E+03  1.5654811320E+03  9.9431916400E+02 0. 9.
 1000021    2    3    0  101  103 -1.8556656282E+02  4.9205043971E+02  1.0715247783E+02  1.0179960734E+03  8.6503512500E+02 0. 9.
       1    1    3    0  103    0 -1.5674141751E+02  6.2501686873E+01  7.5277714896E+01  1.8477330999E+02  3.3000000000E-01 0. 9.
 1000023    2    4    0    0    0  5.3935657267E+02 -1.1606286296E+02  8.6543355667E+02  1.0609687356E+03  2.6889276000E+02 0. 9.
       1    1    4    0  102    0 -1.9704859233E+02 -4.3848926363E+02  1.5307405751E+02  5.0451239631E+02  3.3000000000E-01 0. 9.
 1000024    2    5    0    0    0  1.3987171685E+02 -4.6872085195E+01 -1.3327052219E+02  3.3451778052E+02  2.6903535800E+02 0. 9.
      -4    1    5    0    0  103 -2.6294399099E+02  3.5695160923E+02  2.0236010355E+02  4.8734572456E+02  1.5000000000E+00 0. 9.
       3    1    5    0  101    0 -6.2494288677E+01  1.8197091567E+02  3.8062896462E+01  1.9613256832E+02  5.0000000000E-01 0. 9.
 1000022    1    7    0    0    0  2.1179314307E+02  1.6768349516E+01  3.3850708883E+02  4.1994719754E+02  1.2896157000E+02 0. 9.
      23    2    7    0    0    0  3.2756342959E+02 -1.3283121248E+02  5.2692646784E+02  6.4102153811E+02  9.1187600000E+01 0. 9.
 1000022    1    9    0    0    0  9.0187693319E+01  2.5888893099E+01 -1.4382112278E+02  2.1475487586E+02  1.2896157000E+02 0. 9.
      24    2    9    0    0    0  4.9684023529E+01 -7.2760978294E+01  1.0550600588E+01  1.1976290466E+02  8.0431188000E+01 0. 9.
       1    1   13    0  104    0  2.8053563009E+02 -1.1164562612E+02  4.9660235077E+02  5.8118756806E+02  3.3000000000E-01 0. 9.
      -1    1   13    0    0  104  4.7027799505E+01 -2.1185586353E+01  3.0324117074E+01  5.9833970049E+01  3.3000000000E-01 0. 9.
     -11    1   15    0    0    0  3.8674284184E+01  6.4512222384E+00  1.0045195518E+00  3.9221519416E+01  5.1000000000E-04 0. 9.
      12    1   15    0    0    0  1.1009739345E+01 -7.9212200532E+01  9.5460810366E+00  8.0541385243E+01  0.0000000000E+00 0. 9.
</event>
<event>
    22   244  1.000000E+00  8.995521E+02  7.967561E-03  9.385483E-02
      21   -1    0    0  101  102  0.0000000000E+00  0.0000000000E+00  1.0436018854E+03  1.0436018854E+03  0.0000000000E+00 0. 9.
      21   -1    0    0  103  101  0.0000000000E+00  0.0000000000E+00 -1.0392426862E+03  1.0392426862E+03  0.0000000000E+00 0. 9.
 1000021    2    1    2  104  102  2.4594078976E+02 -2.0525271825E+01  5.2692992737E+02  1.0425205392E+03  8.6503512500E+02 0. 9.
 1000021    2    1    2  103  104 -2.4594078976E+02  2.0525271825E+01 -5.2257072823E+02  1.0403240324E+03  8.6503512500E+02 0. 9.
-1000024    2    3    0    0    0 -1.0703335713E+02 -7.7638950373E+01  3.1879176719E+02  4.3759817280E+02  2.6903535800E+02 0. 9.
       6    2    3    0  104    0  8.3007339336E+00  1.2125171356E+02  1.2057374615E+02  2.4353059045E+02  1.7320000000E+02 0. 9.
      -5    1    3    0    0  102  3.4467341296E+02 -6.4138035010E+01  8.7564414030E+01  3.6139177597E+02  4.8000000000E+00 0. 9.
-1000024    2    4    0    0    0  2.2892123869E+02 -4.5587016110E+01 -3.7833022531E+02  5.1961225235E+02  2.6903535800E+02 0. 9.
       4    1    4    0  103    0 -4.6129673204E+01  3.1905896733E+01  2.1079937544E+01  5.9937857511E+01  1.5000000000E+00 0. 9.
      -3    1    4    0    0  104 -4.2873235524E+02  3.4206391203E+01 -1.6532044047E+02  4.6077392251E+02  5.0000000000E-01 0. 9.
 1000022    1    5    0    0    0 -3.3636747431E+01  3.5583707926E+01  1.8807145496E+02  2.3323719633E+02  1.2896157000E+02 0. 9.
     -24    2    5    0    0    0 -7.3396609700E+01 -1.1322265830E+02  1.3072031224E+02  2.0436097646E+02  8.0431188000E+01 0. 9.
      24    2    6    0    0    0  1.8338595706E+01  7.0135888955E+01  1.4884794459E+02  1.8406584046E+02  8.0431188000E+01 0. 9.
       5    1    6    0  104    0 -1.0037861773E+01  5.1115824603E+01 -2.8274198442E+01  5.9464749990E+01  4.8000000000E+00 0. 9.
 1000022    1    8    0    0    0  1.3701608631E+02 -7.7733195991E+01 -1.3153321354E+02  2.4237972371E+02  1.2896157000E+02 0. 9.
     -24    2    8    0    0    0  9.1905152374E+01  3.2146179881E+01 -2.4679701177E+02  2.7723252864E+02  8.0431188000E+01 0. 9.
      15    1   12    0    0    0 -1.6153820561E-01  1.0118673510E+01  2.2294531506E+01  2.4548269028E+01  1.7770000000E+00 0. 9.
     -16    1   12    0    0    0 -7.3235071494E+01 -1.2334133181E+02  1.0842578073E+02  1.7981270744E+02  0.0000000000E+00 0. 9.
      -3    1   13    0    0  105 -3.1440596065E+01  2.6103418957E+01  6.8708345048E+01  7.9943644159E+01  5.0000000000E-01 0. 9.
       4    1   13    0  105    0  4.9779191771E+01  4.4032469998E+01  8.0139599546E+01  1.0412219630E+02  1.5000000000E+00 0. 9.
       1    1   16    0  106    0  8.5067561285E+01  2.3614162715E+01 -1.1498889506E+02  1.4497128526E+02  3.3000000000E-01 0. 9.
      -2    1   16    0    0  106  6.8375910896E+00  8.5320171657E+00 -1.3180811671E+02  1.3226124338E+02  3.3000000000E-01 0. 9.
</event>
<event>
    17   259  1.000000E+00  9.337065E+02  7.970968E-03  9.345599E-02
       1   -1    0    0  101    0  0.0000000000E+00  0.0000000000E+00  1.4176771467E+03  1.4176771467E+03  0.0000000000E+00 0. 9.
      21   -1    0    0  102  101  0.0000000000E+00  0.0000000000E+00 -6.1376949196E+02  6.1376949196E+02  0.0000000000E+00 0. 9.
 2000001    2    1    2  103    0  5.0510275626E+01 -5.8084166228E+01  4.8125055467E+02  1.1049918745E+03  9.9170554500E+02 0. 9.
 1000021    2    1    2  102  103 -5.0510275626E+01  5.8084166228E+01  3.2265710003E+02  9.2645476414E+02  8.6503512500E+02 0. 9.
 1000022    1    3    0    0    0 -2.0217612005E+02 -3.1092308860E+02  6.0966131301E+02  7.2516643170E+02  1.2896157000E+02 0. 9.
       1    1    3    0  103    0  2.5268639567E+02  2.5283892237E+02 -1.2841075835E+02  3.7982544278E+02  3.3000000000E-01 0. 9.
 1000024    2    4    0    0    0 -3.9795242813E+01  1.5697064363E+02  4.3952071727E+02  5.4016842658E+02  2.6903535800E+02 0. 9.
      -6    2    4    0    0  103  1.2022643791E+02 -1.0071209306E+02 -4.9099338278E+01  2.3875993608E+02  1.7320000000E+02 0. 9.
       5    1    4    0  102    0 -1.3094147072E+02  1.8256156522E+00 -6.7764278969E+01  1.4752640147E+02  4.8000000000E+00 0. 9.
 1000022    1    7    0    0    0 -9.6314657002E+01  1.2592146630E+02  2.3717369181E+02  3.1307375401E+02  1.2896157000E+02 0. 9.
      24    2    7    0    0    0  5.6519414189E+01  3.1049177332E+01  2.0234702547E+02  2.2709467258E+02  8.0431188000E+01 0. 9.
     -24    2    8    0    0    0  1.4289130426E+02 -6.9828381117E+01 -2.4926414704E+00  1.7823949311E+02  8.0431188000E+01 0. 9.
      -5    1    8    0    0  103 -2.2664866350E+01 -3.0883711938E+01 -4.6606696808E+01  6.0520442968E+01  4.8000000000E+00 0. 9.
     -15    1   11    0    0    0  7.1138126604E+01  4.2510600964E+01  1.4761237041E+02  1.6929369120E+02  1.7770000000E+00 0. 9.
      16    1   11    0    0    0 -1.4618712416E+01 -1.1461423631E+01  5.4734655053E+01  5.7800981377E+01  0.0000000000E+00 0. 9.
       1    1   12    0  104    0  5.4688425877E+01 -3.5322977946E+01 -3.9954581608E+01  7.6387264562E+01  3.3000000000E-01 0. 9.
      -2    1   12    0    0  104  8.8202878378E+01 -3.4505403171E+01  3.7461940137E+01  1.0185222855E+02  3.3000000000E-01 0. 9.
</event>
<event>
    20   258  1.000000E+00  1.030996E+03  7.980045E-03  9.241147E-02
      21   -1    0    0  101  102  0.0000000000E+00  0.0000000000E+00  6.5281128440E+02  6.5281128440E+02  0.0000000000E+00 0. 9.
       2   -1    0    0  102    0  0.0000000000E+00  0.0000000000E+00 -1.8383407462E+03  1.8383407462E+03  0.0000000000E+00 0. 9.
 1000021    2    1    2  101  103  7.6830648357E+01 -4.3745337996E+02 -1.3833087695E+02  9.8218613672E+02  8.6503512500E+02 0. 9.
 1000002    2    1    2  103    0 -7.6830648357E+01  4.3745337996E+02 -1.0471985848E+03  1.5089658939E+03  9.9150632100E+02 0. 9.
 1000023    2    3    0    0    0 -1.4423076970E+02  3.2855264050E+01 -2.6315953662E+02  4.0427495767E+02  2.6889276000E+02 0. 9.
       3    1    3    0  101    0  3.6365956355E+01 -3.1614769700E+02  3.1213256950E+01  3.1975985757E+02  5.0000000000E-01 0. 9.
      -3    1    3    0    0  103  1.8469546170E+02 -1.5416094701E+02  9.3615402725E+01  2.5815132148E+02  5.0000000000E-01 0. 9.
 1000021    2    4    0  103  104 -1.0849953512E+02  2.6562046403E+02 -8.9226633023E+02  1.2754416300E+03  8.6503512500E+02 0. 9.
       2    1    4    0  104    0  3.1668886765E+01  1.7183291593E+02 -1.5493225460E+02  2.3352426384E+02  3.3000000000E-01 0. 9.
 1000022    1    5    0    0    0 -3.6149613009E+01  4.9344152015E+00 -1.4811590556E+02  1.9975122275E+02  1.2896157000E+02 0. 9.
      25    2    5    0    0    0 -1.0808115669E+02  2.7920848848E+01 -1.1504363106E+02  2.0452373492E+02  1.2701893900E+02 0. 9.
 1000023    2    8    0    0    0 -1.8315832924E+02 -5.2571152649E+01 -3.0015701188E+02  4.4576703313E+02  2.6889276000E+02 0. 9.
       3    1    8    0  103    0 -8.3466021337E+01 -2.8566780589E+01  3.5759206552E+01  9.5192481449E+01  5.0000000000E-01 0. 9.
      -3    1    8    0    0  104  1.5812481546E+02  3.4675839727E+02 -6.2786852490E+02  7.3448211544E+02  5.0000000000E-01 0. 9.
       5    1   11    0  105    0 -9.6213959330E+01 -3.5813074586E+01 -8.2691593889E+01  1.3191149298E+02  4.8000000000E+00 0. 9.
      -5    1   11    0    0  105 -1.1867197363E+01  6.3733923434E+01 -3.2352037169E+01  7.2612241933E+01  4.8000000000E+00 0. 9.
 1000022    1   12    0    0    0 -1.2966874586E+02 -2.4135701506E+01 -1.3385382074E+02  2.2791324578E+02  1.2896157000E+02 0. 9.
      25    2   12    0    0    0 -5.3489583385E+01 -2.8435451143E+01 -1.6630319114E+02  2.1785378735E+02  1.2701893900E+02 0. 9.
       5    1   18    0  106    0 -8.5150147552E+01 -5.2945138419E+01 -1.1713886312E+02  1.5426693931E+02  4.8000000000E+00 0. 9.
      -5    1   18    0    0  106  3.1660564166E+01  2.4509687276E+01 -4.9164328019E+01  6.3586848036E+01  4.8000000000E+00 0. 9.
</event>
<event>
    12   230  1.000000E+00  2.823392E+02  7.863047E-03  1.082156E-01
       2   -1    0    0  101    0  0.0000000000E+00  0.0000000000E+00  2.1355768907E+03  2.1355768907E+03  0.0000000000E+00 0. 9.
      -1   -1    0    0    0  101  0.0000000000E+00  0.0000000000E+00 -3.7335756765E+01  3.7335756765E+01  0.0000000000E+00 0. 9.
 1000024    2    1    2    0    0 -2.9019216991E+01  8.0818621186E+01  1.0656739809E+03  1.1024585352E+03  2.6903535800E+02 0. 9.
 1000023    2    1    2    0    0  2.9019216991E+01 -8.0818621186E+01  1.0325671530E+03  1.0704541122E+03  2.6889276000E+02 0. 9.
 1000022    1    3    0    0    0 -7.2502451628E+01  6.7966172021E+01  4.2414754728E+02  4.5432173009E+02  1.2896157000E+02 0. 9.
      24    2    3    0    0    0  4.3483234637E+01  1.2852449164E+01  6.4152643361E+02  6.4813680513E+02  8.0431188000E+01 0. 9.
 1000022    1    4    0    0    0  2.3506352284E+01 -1.0989676566E+01  5.9871411442E+02  6.1299510514E+02  1.2896157000E+02 0. 9.
      25    2    4    0    0    0  5.5128647067E+00 -6.9828944620E+01  4.3385303859E+02  4.5745900707E+02  1.2701893900E+02 0. 9.
      -1    1    6    0    0  102  2.2880908571E+01  3.9255510343E+01  5.2297934561E+02  5.2494955558E+02  3.3000000000E-01 0. 9.
       2    1    6    0  102    0  2.0602326066E+01 -2.6403061179E+01  1.1854708800E+02  1.2318724955E+02  3.3000000000E-01 0. 9.
       5    1    8    0  103    0  1.1070741315E+01  3.1421924265E+01  4.9034576613E+01  5.9475443180E+01  4.8000000000E+00 0. 9.
      -5    1    8    0    0  103 -5.5578766087E+00 -1.0125086889E+02  3.8481846198E+02  3.9798356389E+02  4.8000000000E+00 0. 9.
</event>
<event>
    12   230  1.000000E+00  2.731517E+02  7.860103E-03  1.086904E-01
      -1   -1    0    0    0  101  0.0000000000E+00  0.0000000000E+00  8.6311619918E+01  8.6311619918E+01  0.0000000000E+00 0. 9.
       2   -1    0    0  101    0  0.0000000000E+00  0.0000000000E+00 -1.6756682846E+03  1.6756682846E+03  0.0000000000E+00 0. 9.
 1000023    2    1    2    0    0  1.5771254926E+01  4.4960414268E+01 -1.8159262736E+02  3.2794720615E+02  2.6889276000E+02 0. 9.
 1000024    2    1    2    0    0 -1.5771254926E+01 -4.4960414268E+01 -1.4077640373E+03  1.4340326983E+03  2.6903535800E+02 0. 9.
 1000022    1    3    0    0    0 -1.1137506620E+01  2.8746128620E+01 -4.8175215241E+01  1.4107558919E+02  1.2896157000E+02 0. 9.
      25    2    3    0    0    0  2.6908761546E+01  1.6214285648E+01 -1.3341741211E+02  1.8687161696E+02  1.2701893900E+02 0. 9.
 1000022    1    4    0    0    0 -1.9684830166E+01 -1.0888474150E+02 -9.1775893247E+02  9.3335734000E+02  1.2896157000E+02 0. 9.
      24    2    4    0    0    0  3.9135752400E+00  6.3924327228E+01 -4.9000510482E+02  5.0067535833E+02  8.0431188000E+01 0. 9.
       5    1    6    0  102    0  4.3938878156E+01 -4.6661260262E+01 -5.3264159958E+01  8.3474600681E+01  4.8000000000E+00 0. 9.
      -5    1    6    0    0  102 -1.7030116610E+01  6.2875545909E+01 -8.0153252157E+01  1.0339701628E+02  4.8000000000E+00 0. 9.
     -11    1    8    0    0    0 -1.7502336801E+01  7.5008208993E+01 -4.0763727109E+02  4.1485022356E+02  5.1000000000E-04 0. 9.
      12    1    8    0    0    0  2.1415912041E+01 -1.1083881764E+01 -8.2367833733E+01  8.5825134764E+01  0.0000000000E+00 0. 9.
</event>
<event>
    20   259  1.000000E+00  1.063904E+03  7.982927E-03  9.208523E-02
      21   -1    0    0  101  102  0.0000000000E+00  0.0000000000E+00  6.5996830238E+02  6.5996830238E+02  0.0000000000E+00 0. 9.
       2   -1    0    0  102    0  0.0000000000E+00  0.0000000000E+00 -2.3121449847E+03  2.3121449847E+03  0.0000000000E+00 0. 9.
 1000021    2    1    2  101  103 -5.1556969520E+02 -2.4504846898E+01 -3.7047901758E+01  1.0080034289E+03  8.6503512500E+02 0. 9.
 2000002    2    1    2  103    0  5.1556969520E+02  2.4504846898E+01 -1.6151287806E+03  1.9641098582E+03  9.9129912700E+02 0. 9.
-1000024    2    3    0    0    0 -5.1000950477E+01  2.3369834654E+01 -1.0719061811E+02  2.9498660747E+02  2.6903535800E+02 0. 9.
       2    1    3    0  101    0 -4.4831180775E+02 -2.1496201406E+02  1.6039669248E+02  5.2241683770E+02  3.3000000000E-01 0. 9.
      -1    1    3    0    0  103 -1.6256936976E+01  1.6708733251E+02 -9.0253976125E+01  1.9059998371E+02  3.3000000000E-01 0. 9.
 1000021    2    4    0  103  104  5.7025079186E+02  8.0679478464E+01 -1.4997602185E+03  1.8246264342E+03  8.6503512500E+02 0. 9.
       2    1    4    0  104    0 -5.4681096666E+01 -5.6174631566E+01 -1.1536856206E+02  1.3948342402E+02  3.3000000000E-01 0. 9.
 1000022    1    5    0    0    0 -4.0031567138E+01 -6.7407114514E+01 -7.7426526358E+01  1.6962369815E+02  1.2896157000E+02 0. 9.
     -24    2    5    0    0    0 -1.0969383339E+01  9.0776949169E+01 -2.9764091755E+01  1.2536290932E+02  8.0431188000E+01 0. 9.
-1000024    2    8    0    0    0  5.4002359394E+02 -1.3766911017E+01 -1.5341031486E+03  1.6485349569E+03  2.6903535800E+02 0. 9.
       2    1    8    0  103    0  3.8389128794E+01  1.1741262451E+02  6.2837465867E+01  1.3859331016E+02  3.3000000000E-01 0. 9.
      -1    1    8    0    0  104 -8.1619308707E+00 -2.2966235031E+01 -2.8494535814E+01  3.7498167132E+01  3.3000000000E-01 0. 9.
       1    1   11    0  105    0 -3.1645549089E+01  5.4591969355E+01  1.4310095861E+01  6.4704031086E+01  3.3000000000E-01 0. 9.
      -2    1   11    0    0  105  2.0676165749E+01  3.6184979814E+01 -4.4074187616E+01  6.0658878231E+01  3.3000000000E-01 0. 9.
 1000022    1   12    0    0    0  2.7192741618E+02 -8.5468323713E+01 -8.5892941891E+02  9.1413357188E+02  1.2896157000E+02 0. 9.
     -24    2   12    0    0    0  2.6809617776E+02  7.1701412696E+01 -6.7517372966E+02  7.3440138503E+02  8.0431188000E+01 0. 9.
       1    1   18    0  106    0  1.9928778378E+02  1.8197834966E+01 -4.3263254304E+02  4.7667369149E+02  3.3000000000E-01 0. 9.
      -2    1   18    0    0  106  6.8808393981E+01  5.3503577730E+01 -2.4254118662E+02  2.5772769354E+02  3.3000000000E-01 0. 9.
</event>
<event>
    12   230  1.000000E+00  3.391942E+02  7.879411E-03  1.056560E-01
       2   -1    0    0  101    0  0.0000000000E+00  0.0000000000E+00  7.6750043292E+02  7.6750043292E+02  0.0000000000E+00 0. 9.
      -1   -1    0    0    0  101  0.0000000000E+00  0.0000000000E+00 -1.7139860709E+02  1.7139860709E+02  0.0000000000E+00 0. 9.
 1000024    2    1    2    0    0 -4.9445315985E+01  2.0066430450E+02  1.3185529295E+02  3.6397368655E+02  2.6903535800E+02 0. 9.
 1000023    2    1    2    0    0  4.9445315985E+01 -2.0066430450E+02  4.6424653288E+02  5.7492535345E+02  2.6889276000E+02 0. 9.
 1000022    1    3    0    0    0  1.6837317902E+01  1.5814009170E+02  2.0729953036E+01  2.0579747658E+02  1.2896157000E+02 0. 9.
      24    2    3    0    0    0 -6.6282633887E+01  4.2524212800E+01  1.1112533991E+02  1.5817620998E+02  8.0431188000E+01 0. 9.
 1000022    1    4    0    0    0  1.5189276661E+01 -1.1451981460E+02  1.7791607098E+02  2.4825534619E+02  1.2896157000E+02 0. 9.
      25    2    4    0    0    0  3.4256039324E+01 -8.6144489894E+01  2.8633046190E+02  3.2667000726E+02  1.2701893900E+02 0. 9.
      -3    1    6    0    0  102 -7.7334616716E+01  3.3938251510E+01  1.1581684121E+02  1.4333959176E+02  5.0000000000E-01 0. 9.
       4    1    6    0  102    0  1.1051982829E+01  8.5859612903E+00 -4.6915012968E+00  1.4836618218E+01  1.5000000000E+00 0. 9.
       5    1    8    0  103    0  7.2802257429E+01 -9.2430306391E+01  2.0837715595E+02  2.3934830133E+02  4.8000000000E+00 0. 9.
      -5    1    8    0    0  103 -3.8546218105E+01  6.2858164970E+00  7.7953305947E+01  8.7321705934E+01  4.8000000000E+00 0. 9.
</event>
<event>
    17   258  1.000000E+00  9.843105E+02  7.975799E-03  9.289688E-02
      21   -1    0    0  101  102  0.0000000000E+00  0.0000000000E+00  1.5481629683E+03  1.5481629683E+03  0.0000000000E+00 0. 9.
       2   -1    0    0  102    0  0.0000000000E+00  0.0000000000E+00 -7.2392227370E+02  7.2392227370E+02  0.0000000000E+00 0. 9.
 1000021    2    1    2  101  103 -2.3986664370E+02 -2.1364905518E+02 -3.1885878854E+01  9.2330081896E+02  8.6503512500E+02 0. 9.
 1000002    2    1    2  103    0  2.3986664370E+02  2.1364905518E+02  8.5612657349E+02  1.3487844231E+03  9.9150632100E+02 0. 9.
 1000023    2    3    0    0    0  3.5487150236E+01  8.6648059640E+01 -7.4569809528E+01  2.9433178039E+02  2.6889276000E+02 0. 9.
       5    1    3    0  101    0 -6.2048935860E+01  1.1336323588E+02  9.5183755941E+01  1.6057484575E+02  4.8000000000E+00 0. 9.
      -5    1    3    0    0  103 -2.1330485807E+02 -4.1366035070E+02 -5.2499825267E+01  4.6839419283E+02  4.8000000000E+00 0. 9.
 1000024    2    4    0    0    0  5.8446725385E+02  1.6090669858E+01  5.6322018735E+02  8.5525311094E+02  2.6903535800E+02 0. 9.
       1    1    4    0  103    0 -3.4460061015E+02  1.9755838532E+02  2.9290638614E+02  4.9353131215E+02  3.3000000000E-01 0. 9.
 1000022    1    5    0    0    0  1.2799024923E+01  6.4346260822E+01 -2.1701665590E+00  1.4470678105E+02  1.2896157000E+02 0. 9.
      25    2    5    0    0    0  2.2688125313E+01  2.2301798818E+01 -7.2399642969E+01  1.4962499934E+02  1.2701893900E+02 0. 9.
 1000022    1    8    0    0    0  3.5039619343E+02  6.2657708938E+01  4.2032192816E+02  5.6568992450E+02  1.2896157000E+02 0. 9.
      24    2    8    0    0    0  2.3407106042E+02 -4.6567039080E+01  1.4289825919E+02  2.8956318644E+02  8.0431188000E+01 0. 9.
       5    1   11    0  104    0  3.6061942144E+00 -2.2139245343E+01  2.9120745556E+01  3.7070320242E+01  4.8000000000E+00 0. 9.
      -5    1   11    0    0  104  1.9081931099E+01  4.4441044161E+01 -1.0152038853E+02  1.1255467910E+02  4.8000000000E+00 0. 9.
      -1    1   13    0    0  105  2.0560821105E+02 -6.4272144085E+01  1.3762425306E+02  2.5562900634E+02  3.3000000000E-01 0. 9.
       2    1   13    0  105    0  2.8462849374E+01  1.7705105005E+01  5.2740061355E+00  3.3934180091E+01  3.3000000000E-01 0. 9.
</event>
<event>
    20   259  1.000000E+00  1.036388E+03  7.980523E-03  9.235716E-02
      21   -1    0    0  101  102  0.0000000000E+00  0.0000000000E+00  1.2051500501E+03  1.2051500501E+03  0.0000000000E+00 0. 9.
       2   -1    0    0  102    0  0.0000000000E+00  0.0000000000E+00 -2.5581284420E+03  2.5581284420E+03  0.0000000000E+00 0. 9.
 1000021    2    1    2  101  103 -2.2576958726E+02  3.9704929284E+02  8.5567894952E+02  1.2996508299E+03  8.6503512500E+02 0. 9.
 2000002    2    1    2  103    0  2.2576958726E+02 -3.9704929284E+02 -2.2086573413E+03  2.4636276622E+03  9.9129912700E+02 0. 9.
 1000023    2    3    0    0    0  1.6090241631E+01  1.1913443298E+02  5.7093406352E+02  6.4243359989E+02  2.6889276000E+02 0. 9.
       5    1    3    0  101    0  5.1467651755E+00  3.0659500138E+02  4.1750707314E+01  3.0950467787E+02  4.8000000000E+00 0. 9.
      -5    1    3    0    0  103 -2.4700659406E+02 -2.8680141523E+01  2.4299417869E+02  3.4771255212E+02  4.8000000000E+00 0. 9.
 1000021    2    4    0  103  104  1.2333587604E+02 -3.5479769821E+02 -1.7100542810E+03  1.9528606085E+03  8.6503512500E+02 0. 9.
       2    1    4    0  104    0  1.0243371122E+02 -4.2251594628E+01 -4.9860306040E+02  5.1076705373E+02  3.3000000000E-01 0. 9.
 1000022    1    5    0    0    0 -1.9582084178E+01  3.3716234327E+01  2.2108434550E+02  2.5890078571E+02  1.2896157000E+02 0. 9.
      25    2    5    0    0    0  3.5672325809E+01  8.5418198655E+01  3.4984971802E+02  3.8353281418E+02  1.2701893900E+02 0. 9.
-1000024    2    8    0    0    0  6.7627178220E+01 -3.7257679251E+02 -4.4589736353E+02  6.4388771086E+02  2.6903535800E+02 0. 9.
       2    1    8    0  103    0 -8.4201171466E+01 -1.1554285026E+02 -6.3015028644E+02  6.4616521101E+02  3.3000000000E-01 0. 9.
      -1    1    8    0    0  104  1.3990986928E+02  1.3332194455E+02 -6.3400663099E+02  6.6280768663E+02  3.3000000000E-01 0. 9.
      21    1   11    0  105  106 -2.6631397972E+01 -5.1483907039E+00  1.7435319648E+02  1.7645048713E+02  0.0000000000E+00 0. 9.
      21    1   11    0  106  105  6.2303723781E+01  9.0566589359E+01  1.7549652154E+02  2.0708232705E+02  0.0000000000E+00 0. 9.
 1000022    1   12    0    0    0  1.2110732216E+01 -1.3944040549E+02 -2.9005134265E+02  3.4691665343E+02  1.2896157000E+02 0. 9.
     -24    2   12    0    0    0  5.5516446004E+01 -2.3313638701E+02 -1.5584602088E+02  2.9697105743E+02  8.0431188000E+01 0. 9.
      11    1   18    0    0    0  2.0766455033E+01 -2.1101516789E+01 -4.8407378224E+01  5.6743228074E+01  5.1000000000E-04 0. 9.
     -12    1   18    0    0    0  3.4749990970E+01 -2.1203487023E+02 -1.0743864265E+02  2.4022782936E+02  0.0000000000E+00 0. 9.
</event>
<event>
    12   276  1.000000E+00  1.131538E+03  7.988585E-03  9.145192E-02
       2   -1    0    0  101    0  0.0000000000E+00  0.0000000000E+00  2.2897521598E+03  2.2897521598E+03  0.0000000000E+00 0. 9.
      -2   -1    0    0    0  101  0.0000000000E+00  0.0000000000E+00 -5.8577018099E+02  5.8577018099E+02  0.0000000000E+00 0. 9.
 2000002    2    1    2  102    0 -4.0651434198E+02  3.6365374629E+02  1.1582675096E+03  1.6191836030E+03  9.9129912700E+02 0. 9.
-1000002    2    1    2    0  102  4.0651434198E+02 -3.6365374629E+02  5.4571446922E+02  1.2563387377E+03  9.9150632100E+02 0. 9.
 1000022    1    3    0    0    0 -6.3473512610E+02  5.3963752290E+02  8.4959417254E+02  1.1968870795E+03  1.2896157000E+02 0. 9.
       2    1    3    0  102    0  2.2822078412E+02 -1.7598377661E+02  3.0867333703E+02  4.2229652358E+02  3.3000000000E-01 0. 9.
-1000024    2    4    0    0    0 -1.7901651848E+02 -4.3209947636E+02  2.1882233183E+02  5.8225433285E+02  2.6903535800E+02 0. 9.
      -1    1    4    0    0  102  5.8553086046E+02  6.8445730076E+01  3.2689213739E+02  6.7408440488E+02  3.3000000000E-01 0. 9.
 1000022    1    7    0    0    0 -4.3299201015E+01 -3.0806188250E+02  1.1190667497E+02  3.5486777072E+02  1.2896157000E+02 0. 9.
     -24    2    7    0    0    0 -1.3571731747E+02 -1.2403759386E+02  1.0691565686E+02  2.2738656213E+02  8.0431188000E+01 0. 9.
      11    1   10    0    0    0 -1.4373727135E+02 -1.0626986422E+02  8.4628103027E+01  1.9777664938E+02  5.1000000000E-04 0. 9.
     -12    1   10    0    0    0  8.0199538893E+00 -1.7767729641E+01  2.2287553834E+01  2.9609912747E+01  0.0000000000E+00 0. 9.
</event>
<event>
    16   271  1.000000E+00  1.096884E+03  7.985728E-03  9.177044E-02
       1   -1    0    0  101    0  0.0000000000E+00  0.0000000000E+00  1.5649279177E+03  1.5649279177E+03  0.0000000000E+00 0. 9.
       2   -1    0    0  102    0  0.0000000000E+00  0.0000000000E+00 -8.8914879661E+02  8.8914879661E+02  0.0000000000E+00 0. 9.
 1000001    2    1    2  102    0  1.5672467662E+02 -4.3899218835E+02  7.8961637995E+02  1.3525684430E+03  9.9431916400E+02 0. 9.
 1000002    2    1    2  101    0 -1.5672467662E+02  4.3899218835E+02 -1.1383725882E+02  1.1015082713E+03  9.9150632100E+02 0. 9.
-1000024    2    3    0    0    0  4.6022534731E+02 -2.9386585975E+01  6.1332581655E+02  8.1315405849E+02  2.6903535800E+02 0. 9.
       2    1    3    0  102    0 -3.0350067068E+02 -4.0960560237E+02  1.7629056340E+02  5.3941438454E+02  3.3000000000E-01 0. 9.
 1000024    2    4    0    0    0  2.6299589669E+02 -1.0374290025E+02 -1.4078111726E+02  4.1488405352E+02  2.6903535800E+02 0. 9.
       1    1    4    0  101    0 -4.1972057331E+02  5.4273508860E+02  2.6943858441E+01  6.8662421780E+02  3.3000000000E-01 0. 9.
 1000022    1    5    0    0    0  2.5658278355E+02 -9.6949098083E+01  3.1717102489E+02  4.3870536582E+02  1.2896157000E+02 0. 9.
     -24    2    5    0    0    0  2.0364256375E+02  6.7562512108E+01  2.9615479166E+02  3.7444869267E+02  8.0431188000E+01 0. 9.
 1000022    1    7    0    0    0  7.7122148296E+01 -1.1189916007E+02 -7.4644722414E+01  2.0167342141E+02  1.2896157000E+02 0. 9.
      24    2    7    0    0    0  1.8587374840E+02  8.1562598151E+00 -6.6136394849E+01  2.1321063211E+02  8.0431188000E+01 0. 9.
      11    1   10    0    0    0  1.4117531415E+02  5.3376236669E+01  2.6068997975E+02  3.0122874615E+02  5.1000000000E-04 0. 9.
     -12    1   10    0    0    0  6.2467249607E+01  1.4186275440E+01  3.5464811913E+01  7.3219946520E+01  0.0000000000E+00 0. 9.
      -3    1   12    0    0  103  4.6372176932E+01 -3.2638736021E+01 -2.6221494432E+01  6.2477857299E+01  5.0000000000E-01 0. 9.
       4    1   12    0  103    0  1.3950157146E+02  4.0794995836E+01 -3.9914900417E+01  1.5073277481E+02  1.5000000000E+00 0. 9.
</event>
<event>
    12   226  1.000000E+00  2.798875E+02  7.862270E-03  1.083403E-01
      -2   -1    0    0    0  101  0.0000000000E+00  0.0000000000E+00  1.8725858612E+02  1.8725858612E+02  0.0000000000E+00 0. 9.
       2   -1    0    0  101    0  0.0000000000E+00  0.0000000000E+00 -4.5200394685E+02  4.5200394685E+02  0.0000000000E+00 0. 9.
-1000024    2    1    2    0    0  5.2235709423E+01  5.6819304092E+01 -2.1960668640E+02  3.5575851813E+02  2.6903535800E+02 0. 9.
 1000024    2    1    2    0    0 -5.2235709423E+01 -5.6819304092E+01 -4.5138674323E+01  2.8350401484E+02  2.6903535800E+02 0. 9.
 1000022    1    3    0    0    0  8.7350469184E+01  3.8516665914E+01 -2.1187697111E+02  2.6577542295E+02  1.2896157000E+02 0. 9.
     -24    2    3    0    0    0 -3.5114759761E+01  1.8302638178E+01 -7.7297152940E+00  8.9983095185E+01  8.0431188000E+01 0. 9.
 1000022    1    4    0    0    0 -2.7362037816E+01  5.2235545597E+01 -1.6195422989E+01  1.4272565151E+02  1.2896157000E+02 0. 9.
      24    2    4    0    0    0 -2.4873671607E+01 -1.0905484969E+02 -2.8943251334E+01  1.4077836333E+02  8.0431188000E+01 0. 9.
      15    1    6    0    0    0 -5.9513049788E+00  4.2502667386E+01  1.5346814849E+01  4.5613344768E+01  1.7770000000E+00 0. 9.
     -16    1    6    0    0    0 -2.9163454783E+01 -2.4200029209E+01 -2.3076530144E+01  4.4369750417E+01  0.0000000000E+00 0. 9.
      -3    1    8    0    0  102 -3.2571918647E+00  1.1998746361E+01  4.6687397530E+00  1.3290084422E+01  5.0000000000E-01 0. 9.
       4    1    8    0  102    0 -2.1616479742E+01 -1.2105359605E+02 -3.3611991087E+01  1.2748827890E+02  1.5000000000E+00 0. 9.
</event>
<event>
    20   259  1.000000E+00  9.802922E+02  7.975424E-03  9.293998E-02
       2   -1    0    0  101    0  0.0000000000E+00  0.0000000000E+00  1.6386718096E+03  1.6386718096E+03  0.0000000000E+00 0. 9.
      21   -1    0    0  102  101  0.0000000000E+00  0.0000000000E+00 -6.0043880772E+02  6.0043880772E+02  0.0000000000E+00 0. 9.
 2000002    2    1    2  103    0  2.8835620765E+02 -1.1110169403E+02  7.3355447483E+02  1.2713256922E+03  9.9129912700E+02 0. 9.
 1000021    2    1    2  102  103 -2.8835620765E+02  1.1110169403E+02  3.0467852700E+02  9.6778492508E+02  8.6503512500E+02 0. 9.
 1000021    2    3    0  103  104  2.2743272141E+02 -1.2671378535E+01  7.3151857544E+02  1.1555480952E+03  8.6503512500E+02 0. 9.
       2    1    3    0  104    0  6.0923486236E+01 -9.8430315491E+01  2.0358993971E+00  1.1577759701E+02  3.3000000000E-01 0. 9.
 1000024    2    4    0    0    0 -1.7487751539E+02 -1.8412885784E+02  1.6302008046E+02  4.0427855764E+02  2.6903535800E+02 0. 9.
      -6    2    4    0    0  103 -8.1127983019E+01 -5.0588615704E+01  4.3869584908E+01  2.0264189633E+02  1.7320000000E+02 0. 9.
       5    1    4    0  102    0 -3.2350709243E+01  3.4581916757E+02  9.7788861637E+01  3.6086447111E+02  4.8000000000E+00 0. 9.
 1000022    1    5    0    0    0  1.8622018706E+02 -2.8311109290E+02  5.1269527340E+02  6.2794695548E+02  1.2896157000E+02 0. 9.
       2    1    5    0  103    0 -1.5964239770E+02  9.6088263181E+01  5.1007888703E+00  1.8639950754E+02  3.3000000000E-01 0. 9.
      -2    1    5    0    0  104  2.0085493205E+02  1.7435145118E+02  2.1372251317E+02  3.4120163217E+02  3.3000000000E-01 0. 9.
 1000022    1    7    0    0    0 -1.1611377343E+01 -1.2017986242E+02  8.7107796241E+01  1.9696923140E+02  1.2896157000E+02 0. 9.
      24    2    7    0    0    0 -1.6326613804E+02 -6.3948995423E+01  7.5912284217E+01  2.0730932624E+02  8.0431188000E+01 0. 9.
     -24    2    8    0    0    0 -9.6859811313E+01  6.2645220658E+00  6.2357749919E+01  1.4063688088E+02  8.0431188000E+01 0. 9.
      -5    1    8    0    0  103  1.5731828294E+01 -5.6853137770E+01 -1.8488165012E+01  6.2005015453E+01  4.8000000000E+00 0. 9.
      -1    1   14    0    0  105 -1.6177244359E+02 -6.0965632469E+01  8.8547609523E+01  1.9423676248E+02  3.3000000000E-01 0. 9.
       2    1   14    0  105    0 -1.4936944560E+00 -2.9833629538E+00 -1.2635325305E+01  1.3072563758E+01  3.3000000000E-01 0. 9.
       3    1   15    0  106    0 -7.5520068867E+01 -2.2412695426E+00  8.1180479388E+01  1.1090006458E+02  5.0000000000E-01 0. 9.
      -4    1   15    0    0  106 -2.1339742446E+01  8.5057916083E+00 -1.8822729469E+01  2.9736816292E+01  1.5000000000E+00 0. 9.
</event>
<event>
    12   230  1.000000E+00  3.439205E+02  7.880648E-03  1.054679E-01
      -1   -1    0    0    0  101  0.0000000000E+00  0.0000000000E+00  3.6625999605E+02  3.6625999605E+02  0.0000000000E+00 0. 9.
       2   -1    0    0  101    0  0.0000000000E+00  0.0000000000E+00 -4.9263718246E+02  4.9263718246E+02  0.0000000000E+00 0. 9.
 1000023    2    1    2    0    0 -6.8494097833E+01 -2.0309645495E+02  1.8886449021E+02  3.9231712108E+02  2.6889276000E+02 0. 9.
 1000024    2    1    2    0    0  6.8494097833E+01  2.0309645495E+02 -3.1524167662E+02  4.6658005743E+02  2.6903535800E+02 0. 9.
 1000022    1    3    0    0    0 -7.6896740884E+01 -1.0811207432E+02  1.0352861445E+02  2.1201554169E+02  1.2896157000E+02 0. 9.
      25    2    3    0    0    0  8.4026430506E+00 -9.4984380632E+01  8.5335875761E+01  1.8030157939E+02  1.2701893900E+02 0. 9.
 1000022    1    4    0    0    0 -2.0335530677E-01  2.5246944314E+01 -1.6462595006E+02  2.1064244473E+02  1.2896157000E+02 0. 9.
      24    2    4    0    0    0  6.8697453140E+01  1.7784951064E+02 -1.5061572656E+02  2.5593761270E+02  8.0431188000E+01 0. 9.
       5    1    6    0  102    0  6.2543280544E+01 -4.7975287263E+01  1.6265758917E+01  8.0628190121E+01  4.8000000000E+00 0. 9.
      -5    1    6    0    0  102 -5.4140637493E+01 -4.7009093369E+01  6.9070116844E+01  9.9673389269E+01  4.8000000000E+00 0. 9.
      -1    1    8    0    0  103  1.3696327505E+01  1.3510151095E+02 -1.1364373782E+02  1.7707347541E+02  3.3000000000E-01 0. 9.
       2    1    8    0  103    0  5.5001125635E+01  4.2747999687E+01 -3.6971988743E+01  7.8864137287E+01  3.3000000000E-01 0. 9.
</event>
<event>
    28   259  1.000000E+00  9.888328E+02  7.976219E-03  9.284864E-02
      21   -1    0    0  101  102  0.0000000000E+00  0.0000000000E+00  3.8896256177E+02  3.8896256177E+02  0.0000000000E+00 0. 9.
       1   -1    0    0  102    0  0.0000000000E+00  0.0000000000E+00 -2.5265164968E+03  2.5265164968E+03  0.0000000000E+00 0. 9.
 1000021    2    1    2  101  103  1.9414264493E+02 -2.7242623053E+02 -8.6967027979E+02  1.2714242332E+03  8.6503512500E+02 0. 9.
 2000001    2    1    2  103    0 -1.9414264493E+02  2.7242623053E+02 -1.2678836552E+03  1.6440548254E+03  9.9170554500E+02 0. 9.
 1000023    2    3    0    0    0  1.4159503664E+02 -5.4071746989E+00 -5.1936523709E+02  6.0176570010E+02  2.6889276000E+02 0. 9.
       6    2    3    0  101    0  1.8249733218E+02 -1.6842577808E+02 -3.0050219765E+02  4.2658214891E+02  1.7320000000E+02 0. 9.
      -6    2    3    0    0  103 -1.2994972390E+02 -9.8593277757E+01 -4.9802845047E+01  2.4307638416E+02  1.7320000000E+02 0. 9.
 1000021    2    4    0  103  104 -1.7478229445E+02  2.3962765320E+02 -1.3032499682E+03  1.5920793038E+03  8.6503512500E+02 0. 9.
       1    1    4    0  104    0 -1.9360350483E+01  3.2798577331E+01  3.5366312969E+01  5.1975521534E+01  3.3000000000E-01 0. 9.
 1000022    1    5    0    0    0  1.1337980858E+02  4.3904710001E-01 -2.6090042761E+02  3.1233842770E+02  1.2896157000E+02 0. 9.
      25    2    5    0    0    0  2.8215228067E+01 -5.8462217989E+00 -2.5846480948E+02  2.8942727240E+02  1.2701893900E+02 0. 9.
      24    2    6    0    0    0  1.4892803016E+02 -1.9384654686E+02 -2.3459234054E+02  3.4822231999E+02  8.0431188000E+01 0. 9.
       5    1    6    0  101    0  3.3569302025E+01  2.5420768782E+01 -6.5909857111E+01  7.8359828919E+01  4.8000000000E+00 0. 9.
     -24    2    7    0    0    0 -1.3991601029E+02 -8.4503338511E+01 -8.6932913898E+01  2.0185096402E+02  8.0431188000E+01 0. 9.
      -5    1    7    0    0  103  9.9662863906E+00 -1.4089939246E+01  3.7130068851E+01  4.1225420134E+01  4.8000000000E+00 0. 9.
 1000023    2    8    0    0    0  1.3386336116E+02  1.2938406554E+02 -7.0583543222E+02  7.7792455266E+02  2.6889276000E+02 0. 9.
       5    1    8    0  103    0 -2.7765013555E+02 -5.3491494016E+01 -5.8158159465E+02  6.4669245313E+02  4.8000000000E+00 0. 9.
      -5    1    8    0    0  104 -3.0995520051E+01  1.6373508168E+02 -1.5832941326E+01  1.6746229805E+02  4.8000000000E+00 0. 9.
       5    1   11    0  105    0  1.0754373181E+01 -2.9027238844E+01 -2.1164850514E+00  3.1396761719E+01  4.8000000000E+00 0. 9.
      -5    1   11    0    0  105  1.7460854886E+01  2.3181017045E+01 -2.5634832443E+02  2.5803051068E+02  4.8000000000E+00 0. 9.
      -1    1   12    0    0  106  1.3980094387E+02 -1.8967124939E+02 -2.4040294208E+02  3.3662021659E+02  3.3000000000E-01 0. 9.
       2    1   12    0  106    0  9.1270862895E+00 -4.1752974644E+00  5.8106015433E+00  1.1602103402E+01  3.3000000000E-01 0. 9.
       1    1   14    0  107    0  1.0560160030E+01 -2.7349390953E+00 -5.2672925835E+00  1.2118174073E+01  3.3000000000E-01 0. 9.
      -2    1   14    0    0  107 -1.5047617032E+02 -8.1768399416E+01 -8.1665621315E+01  1.8973278995E+02  3.3000000000E-01 0. 9.
 1000022    1   16    0    0    0  6.5395570018E+01  1.0516349849E+02 -4.2988133655E+02  4.6558027454E+02  1.2896157000E+02 0. 9.
      25    2   16    0    0    0  6.8467791138E+01  2.4220567049E+01 -2.7595409567E+02  3.1234427812E+02  1.2701893900E+02 0. 9.
       5    1   26    0  108    0  3.4677084381E+01 -4.9788899300E+01 -8.3354525238E+01  1.0321071433E+02  4.8000000000E+00 0. 9.
      -5    1   26    0    0  108  3.3790706757E+01  7.4009466350E+01 -1.9259957043E+02  2.0913356379E+02  4.8000000000E+00 0. 9.
</event>
<event>
    18   244  1.000000E+00  9.789223E+02  7.975296E-03  9.295472E-02
      21   -1    0    0  101  102  0.0000000000E+00  0.0000000000E+00  5.8388150292E+02  5.8388150292E+02  0.0000000000E+00 0. 9.
      21   -1    0    0  103  104  0.0000000000E+00  0.0000000000E+00 -1.9600110478E+03  1.9600110478E+03  0.0000000000E+00 0. 9.
 1000021    2    1    2  103  102  2.7916286760E+02  3.6341603703E+02 -1.7510906983E+02  9.9446069628E+02  8.6503512500E+02 0. 9.
 1000021    2    1    2  101  104 -2.7916286760E+02 -3.6341603703E+02 -1.2010204751E+03  1.5494318545E+03  8.6503512500E+02 0. 9.
 1000023    2    3    0    0    0 -1.4395405752E+02  3.6798492217E+01 -2.7488732164E+02  4.1224174423E+02  2.6889276000E+02 0. 9.
       1    1    3    0  103    0  3.9914394790E+02  2.3009061052E+02  1.2922005761E+02  4.7849295960E+02  3.3000000000E-01 0. 9.
      -1    1    3    0    0  102  2.3972977213E+01  9.6526934292E+01 -2.9441805808E+01  1.0372599245E+02  3.3000000000E-01 0. 9.
-1000024    2    4    0    0    0  1.2583727681E+02  3.4132968635E+01 -1.7292744339E+02  3.4537516459E+02  2.6903535800E+02 0. 9.
       4    1    4    0  101    0 -3.5225398072E+02 -3.2622288052E+02 -6.0803953811E+02  7.7473773925E+02  1.5000000000E+00 0. 9.
      -3    1    4    0    0  104 -5.2746163683E+01 -7.1326125147E+01 -4.2005349357E+02  4.2931895063E+02  5.0000000000E-01 0. 9.
 1000022    1    5    0    0    0 -8.0713726219E+00 -8.9823347743E+00 -1.6546316691E+02  2.1013085336E+02  1.2896157000E+02 0. 9.
      23    2    5    0    0    0 -1.3588268490E+02  4.5780826992E+01 -1.0942415473E+02  2.0211089087E+02  9.1187600000E+01 0. 9.
 1000022    1    8    0    0    0  8.4872323944E+01  1.5836320520E+01 -1.9641629228E+02  2.5032887733E+02  1.2896157000E+02 0. 9.
     -24    2    8    0    0    0  4.0964952863E+01  1.8296648115E+01  2.3488848887E+01  9.5046287252E+01  8.0431188000E+01 0. 9.
      16    1   12    0    0    0 -6.3176850589E+01 -1.0743617491E+01 -8.5701078147E+01  1.0701128241E+02  0.0000000000E+00 0. 9.
     -16    1   12    0    0    0 -7.2705834308E+01  5.6524444482E+01 -2.3723076584E+01  9.5099608459E+01  0.0000000000E+00 0. 9.
      15    1   14    0    0    0  2.6837369410E+01  2.9828465441E+01 -2.2172674187E+01  4.5877739232E+01  1.7770000000E+00 0. 9.
     -16    1   14    0    0    0  1.4127583453E+01 -1.1531817325E+01  4.5661523074E+01  4.9168548021E+01  0.0000000000E+00 0. 9.
</event>
<event>
    13   259  1.000000E+00  9.741289E+02  7.974847E-03  9.300650E-02
      21   -1    0    0  101  102  0.0000000000E+00  0.0000000000E+00  6.7886038390E+02  6.7886038390E+02  0.0000000000E+00 0. 9.
       2   -1    0    0  102    0  0.0000000000E+00  0.0000000000E+00 -1.4570582030E+03  1.4570582030E+03  0.0000000000E+00 0. 9.
 1000021    2    1    2  101  103  2.3750017858E+02 -1.6444104473E+02 -5.9048010651E+02  1.0864620176E+03  8.6503512500E+02 0. 9.
 2000002    2    1    2  103    0 -2.3750017858E+02  1.6444104473E+02 -1.8771771257E+02  1.0494565693E+03  9.9129912700E+02 0. 9.
-1000024    2    3    0    0    0 -1.0803675232E+02 -4.3138016776E+01 -1.4845519843E+02  3.2856018952E+02  2.6903535800E+02 0. 9.
       4    1    3    0  101    0 -9.9435616571E+01  2.0077140316E+01  1.7331198044E+01  1.0292304811E+02  1.5000000000E+00 0. 9.
      -3    1    3    0    0  103  4.4497254747E+02 -1.4138016827E+02 -4.5935610613E+02  6.5497877997E+02  5.0000000000E-01 0. 9.
 1000022    1    4    0    0    0 -5.4244959436E+02  2.6940551658E+02  8.7607709514E+01  6.2540953949E+02  1.2896157000E+02 0. 9.
       2    1    4    0  103    0  3.0494941578E+02 -1.0496447185E+02 -2.7532542208E+02  4.2404702980E+02  3.3000000000E-01 0. 9.
 1000022    1    5    0    0    0 -1.3084657377E+02 -7.6378446489E+01 -1.2709495602E+02  2.3609046431E+02  1.2896157000E+02 0. 9.
     -24    2    5    0    0    0  2.2809821450E+01  3.3240429713E+01 -2.1360242412E+01  9.2469725214E+01  8.0431188000E+01 0. 9.
      11    1   11    0    0    0  3.6942511995E+01 -1.4646115264E+01 -5.7235102760E+00  4.0149924719E+01  5.1000000000E-04 0. 9.
     -12    1   11    0    0    0 -1.4132690545E+01  4.7886544977E+01 -1.5636732136E+01  5.2319800494E+01  0.0000000000E+00 0. 9.
</event>
<event>
    12   226  1.000000E+00  3.378040E+02  7.879044E-03  1.057120E-01
      -2   -1    0    0    0  101  0.0000000000E+00  0.0000000000E+00  2.8124174106E+02  2.8124174106E+02  0.0000000000E+00 0. 9.
       2   -1    0    0  101    0  0.0000000000E+00  0.0000000000E+00 -4.2966658264E+02  4.2966658264E+02  0.0000000000E+00 0. 9.
-1000024    2    1    2    0    0  2.0419431698E+02 -6.0184687754E+00 -1.5808899743E+02  3.7296607891E+02  2.6903535800E+02 0. 9.
 1000024    2    1    2    0    0 -2.0419431698E+02  6.0184687754E+00  9.6641558480E+00  3.3794224479E+02  2.6903535800E+02 0. 9.
 1000022    1    3    0    0    0  9.0983986530E+01  7.3896068484E+01 -1.0831613053E+02  2.0518817074E+02  1.2896157000E+02 0. 9.
     -24    2    3    0    0    0  1.1321033045E+02 -7.9914537260E+01 -4.9772866896E+01  1.6777790817E+02  8.0431188000E+01 0. 9.
 1000022    1    4    0    0    0 -1.7480332995E+02  6.2495439797E+01 -2.9880387355E+01  2.2800396541E+02  1.2896157000E+02 0. 9.
      24    2    4    0    0    0 -2.9390987036E+01 -5.6476971021E+01  3.9544543203E+01  1.0993827939E+02  8.0431188000E+01 0. 9.
      13    1    6    0    0    0  9.5823523011E+01 -2.0067127774E+01 -3.0705297145E+01  1.0260440349E+02  1.0566000000E-01 0. 9.
     -14    1    6    0    0    0  1.7386807440E+01 -5.9847409486E+01 -1.9067569751E+01  6.5173504673E+01  0.0000000000E+00 0. 9.
      -3    1    8    0    0  102 -3.1911733320E+00 -7.1606781387E+01  2.2231658103E+01  7.5048060267E+01  5.0000000000E-01 0. 9.
       4    1    8    0  102    0 -2.6199813704E+01  1.5129810366E+01  1.7312885100E+01  3.4890219121E+01  1.5000000000E+00 0. 9.
</event>
<event>
    16   271  1.000000E+00  1.193747E+03  7.993505E-03  9.090900E-02
       1   -1    0    0  101    0  0.0000000000E+00  0.0000000000E+00  1.3416499566E+03  1.3416499566E+03  0.0000000000E+00 0. 9.
       2   -1    0    0  102    0  0.0000000000E+00  0.0000000000E+00 -1.1815107065E+03  1.1815107065E+03  0.0000000000E+00 0. 9.
 1000001    2    1    2  102    0 -3.0253357931E+01 -6.6199570715E+02  4.8112823720E+02  1.2881415149E+03  9.9431916400E+02 0. 9.
 1000002    2    1    2  101    0  3.0253357931E+01  6.6199570715E+02 -3.2098898715E+02  1.2350191482E+03  9.9150632100E+02 0. 9.
-1000024    2    3    0    0    0  2.8626745467E+02 -4.4294156036E+02  6.3987756805E+02  8.7176235721E+02  2.6903535800E+02 0. 9.
       2    1    3    0  102    0 -3.1652081260E+02 -2.1905414679E+02 -1.5874933085E+02  4.1637915772E+02  3.3000000000E-01 0. 9.
 1000024    2    4    0    0    0  1.9673879170E+02  8.5525111296E+02 -1.5554807072E+02  9.3098648998E+02  2.6903535800E+02 0. 9.
       1    1    4    0  101    0 -1.6648543377E+02 -1.9325540580E+02 -1.6544091643E+02  3.0403265821E+02  3.3000000000E-01 0. 9.
 1000022    1    5    0    0    0  2.0478279876E+02 -2.3727214944E+02  2.6992487153E+02  4.3327195890E+02  1.2896157000E+02 0. 9.
     -24    2    5    0    0    0  8.1484655915E+01 -2.0566941092E+02  3.6995269653E+02  4.3849039831E+02  8.0431188000E+01 0. 9.
 1000022    1    7    0    0    0  3.1062399943E+01  4.0633280894E+02 -2.3355058249E+01  4.2807449071E+02  1.2896157000E+02 0. 9.
      24    2    7    0    0    0  1.6567639176E+02  4.4891830401E+02 -1.3219301247E+02  5.0291199927E+02  8.0431188000E+01 0. 9.
      11    1   10    0    0    0  7.3863426636E-02 -5.5859270187E+01  1.5087146336E+02  1.6088027219E+02  5.1000000000E-04 0. 9.
     -12    1   10    0    0    0  8.1410792488E+01 -1.4981014073E+02  2.1908123316E+02  2.7761012612E+02  0.0000000000E+00 0. 9.
      -1    1   12    0    0  103  1.5707389074E+02  3.4391086737E+02 -1.2092870379E+02  3.9695182598E+02  3.3000000000E-01 0. 9.
       2    1   12    0  103    0  8.6025010138E+00  1.0500743665E+02 -1.1264308678E+01  1.0596017330E+02  3.3000000000E-01 0. 9.
</event>
<event>
    12   226  1.000000E+00  2.754422E+02  7.860846E-03  1.085701E-01
      -2   -1    0    0    0  101  0.0000000000E+00  0.0000000000E+00  6.9648690528E+01  6.9648690528E+01  0.0000000000E+00 0. 9.
       2   -1    0    0  101    0  0.0000000000E+00  0.0000000000E+00 -1.1176113146E+03  1.1176113146E+03  0.0000000000E+00 0. 9.
-1000024    2    1    2    0    0  2.3962313782E+01  5.3982996001E+01 -4.2950048600E+02  5.1023430664E+02  2.6903535800E+02 0. 9.
 1000024    2    1    2    0    0 -2.3962313782E+01 -5.3982996001E+01 -6.1846213808E+02  6.7702569850E+02  2.6903535800E+02 0. 9.
 1000022    1    3    0    0    0 -6.7989702813E+01  4.5481884760E+01 -2.2719385686E+02  2.7375050075E+02  1.2896157000E+02 0. 9.
     -24    2    3    0    0    0  9.1952016594E+01  8.5011112411E+00 -2.0230662915E+02  2.3648380589E+02  8.0431188000E+01 0. 9.
 1000022    1    4    0    0    0  1.4524029317E+01 -1.6858954621E+01 -5.3045262155E+02  5.4635724761E+02  1.2896157000E+02 0. 9.
      24    2    4    0    0    0 -3.8486343098E+01 -3.7124041380E+01 -8.8009516529E+01  1.3066845088E+02  8.0431188000E+01 0. 9.
       3    1    6    0  102    0  8.5208936136E+01 -5.1778940006E+00 -9.3523030758E+01  1.2662614527E+02  5.0000000000E-01 0. 9.
      -4    1    6    0    0  102  6.7430804588E+00  1.3679005242E+01 -1.0878359839E+02  1.0985766062E+02  1.5000000000E+00 0. 9.
      -3    1    8    0    0  103 -4.1332128755E+00  1.6187923621E+00 -7.7728283705E+01  7.7856534891E+01  5.0000000000E-01 0. 9.
       4    1    8    0  103    0 -3.4353130223E+01 -3.8742833742E+01 -1.0281232824E+01  5.2811915993E+01  1.5000000000E+00 0. 9.
</event>
<event>
    13   258  1.000000E+00  9.520383E+02  7.972747E-03  9.324924E-02
      21   -1    0    0  101  102  0.0000000000E+00  0.0000000000E+00  3.5228183500E+02  3.5228183500E+02  0.0000000000E+00 0. 9.
       2   -1    0    0  102    0  0.0000000000E+00  0.0000000000E+00 -2.5783978703E+03  2.5783978703E+03  0.0000000000E+00 0. 9.
 1000021    2    1    2  101  103  1.5254531679E+02 -1.3199051848E+02 -1.1576066022E+03  1.4591197290E+03  8.6503512500E+02 0. 9.
 1000002    2    1    2  103    0 -1.5254531679E+02  1.3199051848E+02 -1.0685094331E+03  1.4715599763E+03  9.9150632100E+02 0. 9.
 1000022    1    3    0    0    0  6.7169274444E+01  2.0295421188E+02 -3.0602984873E+02  3.9495250145E+02  1.2896157000E+02 0. 9.
       2    1    3    0  101    0 -1.2514372648E+02  3.9447162405E+00 -1.5981069588E+00  1.2521651612E+02  3.3000000000E-01 0. 9.
      -2    1    3    0    0  103  2.1051976883E+02 -3.3888944661E+02 -8.4997864653E+02  9.3895071146E+02  3.3000000000E-01 0. 9.
 1000024    2    4    0    0    0 -2.6022048854E+02 -3.1221180026E+02 -2.8539492839E+02  5.6481961712E+02  2.6903535800E+02 0. 9.
       1    1    4    0  103    0  1.0767517175E+02  4.4420231874E+02 -7.8311450473E+02  9.0674035920E+02  3.3000000000E-01 0. 9.
 1000022    1    8    0    0    0 -6.3649035770E+01 -1.2413679531E+02 -5.0695144121E+01  1.9662712905E+02  1.2896157000E+02 0. 9.
      24    2    8    0    0    0 -1.9657145277E+02 -1.8807500494E+02 -2.3469978427E+02  3.6819248806E+02  8.0431188000E+01 0. 9.
     -13    1   11    0    0    0 -1.3144533912E+02 -1.2612370125E+02 -1.0460216363E+02  2.1006353561E+02  1.0566000000E-01 0. 9.
      14    1   11    0    0    0 -6.5126113653E+01 -6.1951303689E+01 -1.3009762064E+02  1.5812895245E+02  0.0000000000E+00 0. 9.
</event>
<event>
    34   272  1.000000E+00  1.006641E+03  7.977854E-03  9.266126E-02
       1   -1    0    0  101    0  0.0000000000E+00  0.0000000000E+00  7.3265804112E+02  7.3265804112E+02  0.0000000000E+00 0. 9.
       1   -1    0    0  102    0  0.0000000000E+00  0.0000000000E+00 -1.5890140456E+03  1.5890140456E+03  0.0000000000E+00 0. 9.
 2000001    2    1    2  102    0  1.0979808609E+01 -1.7241105968E+02 -8.4607492366E+02  1.3149786288E+03  9.9170554500E+02 0. 9.
 2000001    2    1    2  101    0 -1.0979808609E+01  1.7241105968E+02 -1.0281080846E+01  1.0066934580E+03  9.9170554500E+02 0. 9.
 1000021    2    3    0  102  103  9.3159866064E+01 -1.0971997589E+02 -8.3524869474E+02  1.2110505288E+03  8.6503512500E+02 0. 9.
       1    1    3    0  103    0 -8.2180057455E+01 -6.2691083799E+01 -1.0826228916E+01  1.0392809997E+02  3.3000000000E-01 0. 9.
 1000021    2    4    0  101  104 -1.1210093222E+02  1.3726023467E+02  4.8923491208E+01  8.8435641373E+02  8.6503512500E+02 0. 9.
       1    1    4    0  104    0  1.0112112361E+02  3.5150825015E+01 -5.9204572054E+01  1.2233704423E+02  3.3000000000E-01 0. 9.
-1000024    2    5    0    0    0 -1.1308536562E+02  2.1106735952E+01 -2.7727295028E+02  4.0310557802E+02  2.6903535800E+02 0. 9.
       6    2    5    0  102    0  3.4517016796E+02 -1.5528858329E+02 -5.1125396810E+02  6.5926917784E+02  1.7320000000E+02 0. 9.
      -5    1    5    0    0  103 -1.3892493627E+02  2.4461871456E+01 -4.6721776356E+01  1.4867577294E+02  4.8000000000E+00 0. 9.
 1000023    2    7    0    0    0 -2.3679331717E+02 -9.6406465982E+01  1.7650468054E+02  4.1088015329E+02  2.6889276000E+02 0. 9.
       6    2    7    0  101    0  1.1426813518E+02  1.7128657209E+02 -9.9971877126E+01  2.8703468904E+02  1.7320000000E+02 0. 9.
      -6    2    7    0    0  104  1.0424249763E+01  6.2380128559E+01 -2.7609312205E+01  1.8644157139E+02  1.7320000000E+02 0. 9.
 1000022    1    9    0    0    0 -5.2922834092E+01 -7.0632812439E+01 -1.5722713501E+02  2.2167832344E+02  1.2896157000E+02 0. 9.
     -24    2    9    0    0    0 -6.0162531531E+01  9.1739548391E+01 -1.2004581527E+02  1.8142725459E+02  8.0431188000E+01 0. 9.
      24    2   10    0    0    0  2.8019922988E+02 -8.4080999816E+01 -2.9836964380E+02  4.2552889831E+02  8.0431188000E+01 0. 9.
       5    1   10    0  102    0  6.4970938078E+01 -7.1207583478E+01 -2.1288432430E+02  2.3374027953E+02  4.8000000000E+00 0. 9.
 1000022    1   12    0    0    0 -6.1391351025E+01 -8.7012075594E+01  1.1737640005E+02  2.0432401990E+02  1.2896157000E+02 0. 9.
      23    2   12    0    0    0 -1.7540196614E+02 -9.3943903883E+00  5.9128280484E+01  2.0655613340E+02  9.1187600000E+01 0. 9.
      24    2   13    0    0    0  1.3702513794E+02  1.8277286285E+02 -8.2873257988E+01  2.5596671798E+02  8.0431188000E+01 0. 9.
       5    1   13    0  101    0 -2.2757002753E+01 -1.1486290755E+01 -1.7098619138E+01  3.1067971064E+01  4.8000000000E+00 0. 9.
     -24    2   14    0    0    0 -5.7405238503E+01  4.2191314883E+01 -3.9582913738E+01  1.1450524670E+02  8.0431188000E+01 0. 9.
      -5    1   14    0    0  104  6.7829488266E+01  2.0188813676E+01  1.1973601533E+01  7.1936324689E+01  4.8000000000E+00 0. 9.
       3    1   16    0  105    0 -6.7794917981E+01  5.0887216952E+01 -1.0958548366E+02  1.3854561697E+02  5.0000000000E-01 0. 9.
      -4    1   16    0    0  105  7.6323864501E+00  4.0852331440E+01 -1.0460331611E+01  4.2881637613E+01  1.5000000000E+00 0. 9.
     -15    1   17    0    0    0  5.3423292905E+01 -2.4425465547E-01 -2.0629884073E+01  5.7296227895E+01  1.7770000000E+00 0. 9.
      16    1   17    0    0    0  2.2677593697E+02 -8.3836745161E+01 -2.7773975973E+02  3.6823267042E+02  0.0000000000E+00 0. 9.
      12    1   20    0    0    0  5.9069081696E+00 -4.6649218612E+00 -9.9498571313E+00  1.2476085806E+01  0.0000000000E+00 0. 9.
     -12    1   20    0    0    0 -1.8130887431E+02 -4.7294685270E+00  6.9078137616E+01  1.9408004759E+02  0.0000000000E+00 0. 9.
     -13    1   21    0    0    0  8.8794859583E+01  7.5297763041E+01 -8.6744737143E+00  1.1674561176E+02  1.0566000000E-01 0. 9.
      14    1   21    0    0    0  4.8230278354E+01  1.0747509981E+02 -7.4198784274E+01  1.3922110622E+02  0.0000000000E+00 0. 9.
      15    1   23    0    0    0 -6.8640630081E+01  6.6824818072E+00 -3.3771727741E+01  7.6810669731E+01  1.7770000000E+00 0. 9.
     -16    1   23    0    0    0  1.1235391577E+01  3.5508833076E+01 -5.8111859965E+00  3.7694576970E+01  0.0000000000E+00 0. 9.
</event>
<event>
    24   258  1.000000E+00  9.704275E+02  7.974498E-03  9.304670E-02
      21   -1    0    0  101  102  0.0000000000E+00  0.0000000000E+00  1.5723389222E+03  1.5723389222E+03  0.0000000000E+00 0. 9.
       2   -1    0    0  102    0  0.0000000000E+00  0.0000000000E+00 -1.0007337085E+03  1.0007337085E+03  0.0000000000E+00 0. 9.
 1000021    2    1    2  101  103  2.6739845489E+02 -6.7397198758E+01  1.0917571464E+03  1.4199520240E+03  8.6503512500E+02 0. 9.
 1000002    2    1    2  103    0 -2.6739845489E+02  6.7397198758E+01 -5.2015193272E+02  1.1531206068E+03  9.9150632100E+02 0. 9.
 1000024    2    3    0    0    0 -9.1657761952E+01 -1.5031040125E+02  6.4670972732E+02  7.2222424309E+02  2.6903535800E+02 0. 9.
      -6    2    3    0    0  103  3.4841799290E+02  3.4207332207E+00  1.9529049049E+02  4.3536584026E+02  1.7320000000E+02 0. 9.
       5    1    3    0  101    0  1.0638223944E+01  7.9492469275E+01  2.4975692863E+02  2.6236194060E+02  4.8000000000E+00 0. 9.
 1000021    2    4    0  103  104 -1.2127559902E+02  6.8637353088E+01 -3.9662797614E+02  9.6177875631E+02  8.6503512500E+02 0. 9.
       2    1    4    0  104    0 -1.4612285587E+02 -1.2401543300E+00 -1.2352395658E+02  1.9134185046E+02  3.3000000000E-01 0. 9.
 1000022    1    5    0    0    0 -3.2754247927E+01 -1.5825421090E+01  1.6680252263E+02  2.1395666104E+02  1.2896157000E+02 0. 9.
      24    2    5    0    0    0 -5.8903514025E+01 -1.3448498016E+02  4.7990720469E+02  5.0826758206E+02  8.0431188000E+01 0. 9.
     -24    2    6    0    0    0  1.6078252950E+02  2.1028408349E+01  1.6402975181E+02  2.4427065160E+02  8.0431188000E+01 0. 9.
      -5    1    6    0    0  103  1.8763546339E+02 -1.7607675128E+01  3.1260738677E+01  1.9109518866E+02  4.8000000000E+00 0. 9.
-1000024    2    8    0    0    0 -1.5179194718E+01 -3.4797816812E+02 -2.4582403168E+02  5.0411178507E+02  2.6903535800E+02 0. 9.
       4    1    8    0  103    0 -1.0629643530E+02  3.5993442078E+02 -1.3461387249E+02  3.9871652096E+02  1.5000000000E+00 0. 9.
      -3    1    8    0    0  104  2.0003098881E-01  5.6681100426E+01 -1.6190071966E+01  5.8950450280E+01  5.0000000000E-01 0. 9.
      -1    1   11    0    0  105 -7.4429780877E+01 -7.4060714805E+01  2.9730048406E+02  3.1529742860E+02  3.3000000000E-01 0. 9.
       2    1   11    0  105    0  1.5526266852E+01 -6.0424265360E+01  1.8260672063E+02  1.9297015346E+02  3.3000000000E-01 0. 9.
       1    1   12    0  106    0  1.4997207316E+02  2.1033795561E+01  1.7321456421E+02  2.3008137134E+02  3.3000000000E-01 0. 9.
      -2    1   12    0    0  106  1.0810456344E+01 -5.3872123989E-03 -9.1848124020E+00  1.4189280259E+01  3.3000000000E-01 0. 9.
 1000022    1   14    0    0    0  4.0888330218E+01 -2.0535002628E+02 -2.1836775255E+02  3.2887087242E+02  1.2896157000E+02 0. 9.
     -24    2   14    0    0    0 -5.6067524936E+01 -1.4262814184E+02 -2.7456279135E+01  1.7524091265E+02  8.0431188000E+01 0. 9.
       3    1   22    0  107    0 -4.3656170182E+01 -2.5117488069E+01  9.8411073293E+00  5.1321017091E+01  5.0000000000E-01 0. 9.
      -4    1   22    0    0  107 -1.2411354754E+01 -1.1751065377E+02 -3.7297386464E+01  1.2391989556E+02  1.5000000000E+00 0. 9.
</event>
<event>
    12   230  1.000000E+00  3.224632E+02  7.874892E-03  1.063496E-01
       2   -1    0    0  101    0  0.0000000000E+00  0.0000000000E+00  8.3813482898E+02  8.3813482898E+02  0.0000000000E+00 0. 9.
      -1   -1    0    0    0  101  0.0000000000E+00  0.0000000000E+00 -1.5069491737E+02  1.5069491737E+02  0.0000000000E+00 0. 9.
 1000024    2    1    2    0    0 -1.7541493462E+02 -2.9503197417E+01  5.5161441052E+02  6.3898303553E+02  2.6903535800E+02 0. 9.
 1000023    2    1    2    0    0  1.7541493462E+02  2.9503197417E+01  1.3582550109E+02  3.4984671082E+02  2.6889276000E+02 0. 9.
 1000022    1    3    0    0    0 -6.1107975319E+01 -5.8534563264E+00  1.2627407104E+02  1.9064279465E+02  1.2896157000E+02 0. 9.
      24    2    3    0    0    0 -1.1430695930E+02 -2.3649741091E+01  4.2534033948E+02  4.4834024088E+02  8.0431188000E+01 0. 9.
 1000022    1    4    0    0    0  6.6521587724E+01  2.8607451346E+01  1.0059482217E+02  1.7886842284E+02  1.2896157000E+02 0. 9.
      25    2    4    0    0    0  1.0889334689E+02  8.9574607112E-01  3.5230678927E+01  1.7097828798E+02  1.2701893900E+02 0. 9.
     -15    1    6    0    0    0 -4.3428763510E+00  1.6992165757E+01  2.1368718433E+01  2.7701518525E+01  1.7770000000E+00 0. 9.
      16    1    6    0    0    0 -1.0996408295E+02 -4.0641906848E+01  4.0397162105E+02  4.2063872235E+02  0.0000000000E+00 0. 9.
       5    1    8    0  102    0  1.2183539108E+02 -6.5102308055E-01 -1.1266263426E+01  1.2245103120E+02  4.8000000000E+00 0. 9.
      -5    1    8    0    0  102 -1.2942044186E+01  1.5467691517E+00  4.6496942353E+01  4.8527256781E+01  4.8000000000E+00 0. 9.
</event>
<event>
    30   275  1.000000E+00  9.931965E+02  7.976622E-03  9.280234E-02
       1   -1    0    0  101    0  0.0000000000E+00  0.0000000000E+00  1.8400967665E+03  1.8400967665E+03  0.0000000000E+00 0. 9.
      -2   -1    0    0    0  101  0.0000000000E+00  0.0000000000E+00 -7.8301663254E+02  7.8301663254E+02  0.0000000000E+00 0. 9.
 2000001    2    1    2  102    0 -1.3502440761E+01 -5.6391543599E+01 -2.0792251496E+02  1.0149256043E+03  9.9170554500E+02 0. 9.
-2000002    2    1    2    0  102  1.3502440761E+01  5.6391543599E+01  1.2650026489E+03  1.6081877947E+03  9.9129912700E+02 0. 9.
 1000021    2    3    0  102  103  1.0659868987E+02 -5.3209993468E+01 -1.8622930438E+02  8.9283912626E+02  8.6503512500E+02 0. 9.
       1    1    3    0  103    0 -1.2010113063E+02 -3.1815501312E+00 -2.1693210576E+01  1.2208647806E+02  3.3000000000E-01 0. 9.
 1000021    2    4    0  104  102 -5.8721192841E+01  6.6220374112E+01  1.2653133466E+03  1.5352970230E+03  8.6503512500E+02 0. 9.
      -2    1    4    0    0  104  7.2223633603E+01 -9.8288305131E+00 -3.1069767784E-01  7.2890771659E+01  3.3000000000E-01 0. 9.
 1000023    2    5    0    0    0  1.3980067451E+02 -4.3330051633E+01 -6.7263030343E+01  3.1344752926E+02  2.6889276000E+02 0. 9.
       6    2    5    0  102    0  4.3476624504E+01 -2.0452069329E+02 -1.4276871736E+02  3.0675735935E+02  1.7320000000E+02 0. 9.
      -6    2    5    0    0  103 -7.6678609148E+01  1.9464075146E+02  2.3802443318E+01  2.7263423764E+02  1.7320000000E+02 0. 9.
-1000024    2    7    0    0    0  5.3422624853E+01  2.2398502894E+02  1.0571749470E+03  1.1149090378E+03  2.6903535800E+02 0. 9.
       4    1    7    0  104    0 -2.1827538670E+01 -1.6508523175E+02 -2.6716823419E+01  1.6865827534E+02  1.5000000000E+00 0. 9.
      -3    1    7    0    0  102 -9.0316279024E+01  7.3205769182E+00  2.3485522299E+02  2.5172970995E+02  5.0000000000E-01 0. 9.
 1000022    1    9    0    0    0  3.1311028074E+01 -5.8801754656E+01 -8.7452136738E+01  1.6946087922E+02  1.2896157000E+02 0. 9.
      23    2    9    0    0    0  1.0848964644E+02  1.5471703023E+01  2.0189106395E+01  1.4398665004E+02  9.1187600000E+01 0. 9.
      24    2   10    0    0    0  4.0470579439E+01 -2.2163673124E+02 -1.5492636899E+02  2.8501239315E+02  8.0431188000E+01 0. 9.
       5    1   10    0  102    0  3.0060450658E+00  1.7116037952E+01  1.2157651633E+01  2.1744966207E+01  4.8000000000E+00 0. 9.
     -24    2   11    0    0    0 -8.4107196061E+01  1.4888460841E+02 -4.0458914881E+01  1.9325306426E+02  8.0431188000E+01 0. 9.
      -5    1   11    0    0  103  7.4285869128E+00  4.5756143049E+01  6.4261358199E+01  7.9381173384E+01  4.8000000000E+00 0. 9.
 1000022    1   12    0    0    0 -2.4753669943E+01  1.2583344900E+02  3.7675878559E+02  4.1835997672E+02  1.2896157000E+02 0. 9.
     -24    2   12    0    0    0  7.8176294795E+01  9.8151579942E+01  6.8041616141E+02  6.9654906103E+02  8.0431188000E+01 0. 9.
       3    1   16    0  105    0  6.6740689096E+01 -3.6210197520E+01  7.0398002572E+00  7.6258158732E+01  5.0000000000E-01 0. 9.
      -3    1   16    0    0  105  4.1748957343E+01  5.1681900543E+01  1.3149306138E+01  6.7728491308E+01  5.0000000000E-01 0. 9.
      -3    1   17    0    0  106  1.5990071855E+01 -1.5361736074E+02 -1.4532824335E+02  2.1207197890E+02  5.0000000000E-01 0. 9.
       4    1   17    0  106    0  2.4480507584E+01 -6.8019370498E+01 -9.5981256407E+00  7.2940414246E+01  1.5000000000E+00 0. 9.
       3    1   19    0  107    0 -2.9224939829E+01  1.2540659455E+02 -3.4197276490E+01  1.3323143317E+02  5.0000000000E-01 0. 9.
      -2    1   19    0    0  107 -5.4882256232E+01  2.3478013858E+01 -6.2616383912E+00  6.0021631094E+01  3.3000000000E-01 0. 9.
       1    1   22    0  108    0 -1.1005982380E+01  3.6874240359E+01  2.3809262339E+02  2.4118260191E+02  3.3000000000E-01 0. 9.
      -2    1   22    0    0  108  8.9182277175E+01  6.1277339584E+01  4.4232353802E+02  4.5536645912E+02  3.3000000000E-01 0. 9.
</event>
<event>
    12   230  1.000000E+00  2.727802E+02  7.859982E-03  1.087100E-01
      -1   -1    0    0    0  101  0.0000000000E+00  0.0000000000E+00  1.0726694123E+03  1.0726694123E+03  0.0000000000E+00 0. 9.
       2   -1    0    0  101    0  0.0000000000E+00  0.0000000000E+00 -7.1991315007E+01  7.1991315007E+01  0.0000000000E+00 0. 9.
 1000023    2    1    2    0    0 -3.9556002096E+01  2.2420316974E+01  6.0946586098E+02  6.6769701212E+02  2.6889276000E+02 0. 9.
 1000024    2    1    2    0    0  3.9556002096E+01 -2.2420316974E+01  3.9121223636E+02  4.7696371523E+02  2.6903535800E+02 0. 9.
 1000022    1    3    0    0    0 -5.5818005738E+01 -3.0287574977E+00  2.7981686163E+02  3.1313477246E+02  1.2896157000E+02 0. 9.
      25    2    3    0    0    0  1.6262003641E+01  2.5449074472E+01  3.2964899935E+02  3.5456223965E+02  1.2701893900E+02 0. 9.
 1000022    1    4    0    0    0 -3.8817644098E+00  6.2077199516E+01  1.6256538325E+02  2.1662695391E+02  1.2896157000E+02 0. 9.
      24    2    4    0    0    0  4.3437766506E+01 -8.4497516490E+01  2.2864685311E+02  2.6033676131E+02  8.0431188000E+01 0. 9.
       5    1    6    0  102    0  5.7499287732E+00  5.3770868587E+01  5.1810217976E+01  7.5044697855E+01  4.8000000000E+00 0. 9.
      -5    1    6    0    0  102  1.0512074868E+01 -2.8321794115E+01  2.7783878137E+02  2.7951754180E+02  4.8000000000E+00 0. 9.
      -1    1    8    0    0  103  1.9710335105E+01 -8.8745746870E+01  2.1302171074E+02  2.3160885787E+02  3.3000000000E-01 0. 9.
       2    1    8    0  103    0  2.3727431401E+01  4.2482303801E+00  1.5625142369E+01  2.8727903445E+01  3.3000000000E-01 0. 9.
</event>
<event>
    26   272  1.000000E+00  1.092956E+03  7.985399E-03  9.180732E-02
       2   -1    0    0  101    0  0.0000000000E+00  0.0000000000E+00  1.1998109468E+03  1.1998109468E+03  0.0000000000E+00 0. 9.
       2   -1    0    0  102    0  0.0000000000E+00  0.0000000000E+00 -1.4384925474E+03  1.4384925474E+03  0.0000000000E+00 0. 9.
 2000002    2    1    2  102    0  3.7015572206E+02  2.7361363707E+02  6.1260883949E+02  1.2529338492E+03  9.9129912700E+02 0. 9.
 2000002    2    1    2  101    0 -3.7015572206E+02 -2.7361363707E+02 -8.5129044010E+02  1.3853696451E+03  9.9129912700E+02 0. 9.
 1000021    2    3    0  102  103  3.9489052207E+02  1.5718992369E+02  4.8689622625E+02  1.0798152153E+03  8.6503512500E+02 0. 9.
       2    1    3    0  103    0 -2.4734800008E+01  1.1642371339E+02  1.2571261324E+02  1.7311863389E+02  3.3000000000E-01 0. 9.
 1000021    2    4    0  101  104 -3.1331827050E+02 -2.9098955732E+02 -6.2093652215E+02  1.1474716524E+03  8.6503512500E+02 0. 9.
       2    1    4    0  104    0 -5.6837451560E+01  1.7375920241E+01 -2.3035391795E+02  2.3789799267E+02  3.3000000000E-01 0. 9.
 1000023    2    5    0    0    0  9.7076961845E+01  3.9640126883E+01  2.9804059700E+01  2.9014974502E+02  2.6889276000E+02 0. 9.
       2    1    5    0  102    0  4.0464604865E+02 -3.7437438013E+01  4.4260997488E+02  6.0086910823E+02  3.3000000000E-01 0. 9.
      -2    1    5    0    0  103 -1.0683248843E+02  1.5498723482E+02  1.4482191667E+01  1.8879636203E+02  3.3000000000E-01 0. 9.
 1000024    2    7    0    0    0  4.0923832913E+01 -6.3846795074E+01 -1.7342152818E+02  3.2894714413E+02  2.6903535800E+02 0. 9.
      -6    2    7    0    0  104 -1.2217943749E+02 -2.1115577201E+02 -4.9751879790E+02  5.8054954075E+02  1.7320000000E+02 0. 9.
       5    1    7    0  101    0 -2.3206266592E+02 -1.5986990231E+01  5.0003803930E+01  2.3797496754E+02  4.8000000000E+00 0. 9.
 1000022    1    9    0    0    0  6.6563946201E+01 -1.7216232747E+01  1.4698950900E+01  1.4688193660E+02  1.2896157000E+02 0. 9.
      25    2    9    0    0    0  3.0513015644E+01  5.6856359630E+01  1.5105108799E+01  1.4326780842E+02  1.2701893900E+02 0. 9.
 1000022    1   12    0    0    0 -4.5439554227E+01  1.0042103063E+01 -6.1317005642E+01  1.5018807756E+02  1.2896157000E+02 0. 9.
      24    2   12    0    0    0  8.6363387140E+01 -7.3888898137E+01 -1.1210452253E+02  1.7875906657E+02  8.0431188000E+01 0. 9.
     -24    2   13    0    0    0 -6.2532652042E+01 -2.1209484297E+02 -4.3119619722E+02  4.9121674593E+02  8.0431188000E+01 0. 9.
      -5    1   13    0    0  104 -5.9646785448E+01  9.3907095708E-01 -6.6322600682E+01  8.9332794816E+01  4.8000000000E+00 0. 9.
       5    1   16    0  105    0  4.8463157625E+01 -2.2625089507E+01 -1.5820512144E+01  5.5981255137E+01  4.8000000000E+00 0. 9.
      -5    1   16    0    0  105 -1.7950141981E+01  7.9481449137E+01  3.0925620943E+01  8.7286553287E+01  4.8000000000E+00 0. 9.
      -3    1   18    0    0  106  3.3017209877E+01 -7.9002937683E+01 -6.8681844282E+01  1.0976814677E+02  5.0000000000E-01 0. 9.
       4    1   18    0  106    0  5.3346177263E+01  5.1140395460E+00 -4.3422678252E+01  6.8990919806E+01  1.5000000000E+00 0. 9.
       1    1   19    0  107    0  3.8210502351E+00 -7.2309697110E+01 -8.2750262856E+01  1.0995911797E+02  3.3000000000E-01 0. 9.
      -2    1   19    0    0  107 -6.6353702277E+01 -1.3978514586E+02 -3.4844593436E+02  3.8125762797E+02  3.3000000000E-01 0. 9.
</event>
<event>
    21   258  1.000000E+00  9.829499E+02  7.975672E-03  9.291145E-02
      21   -1    0    0  101  102  0.0000000000E+00  0.0000000000E+00  1.3041166585E+03  1.3041166585E+03  0.0000000000E+00 0. 9.
       1   -1    0    0  102    0  0.0000000000E+00  0.0000000000E+00 -8.1204504795E+02  8.1204504795E+02  0.0000000000E+00 0. 9.
 1000021    2    1    2  101  103  2.8373320419E+02  1.3117816633E+02  5.5101185102E+02  1.0721996409E+03  8.6503512500E+02 0. 9.
 1000001    2    1    2  103    0 -2.8373320419E+02 -1.3117816633E+02 -5.8940240468E+01  1.0439620656E+03  9.9431916400E+02 0. 9.
-1000024    2    3    0    0    0  3.5553025895E+02 -2.1405899465E+01  1.0835565439E+02  4.5932662589E+02  2.6903535800E+02 0. 9.
       6    2    3    0  101    0 -1.8793719445E+02  1.4323473965E+02  2.3858617525E+02  3.7783353837E+02  1.7320000000E+02 0. 9.
      -5    1    3    0    0  103  1.1614013969E+02  9.3493261453E+00  2.0407002138E+02  2.3503947663E+02  4.8000000000E+00 0. 9.
-1000024    2    4    0    0    0 -4.4364387081E+02  1.9594021965E+02 -2.7659423711E+02  6.1975547568E+02  2.6903535800E+02 0. 9.
       2    1    4    0  103    0  1.5991066661E+02 -3.2711838598E+02  2.1765399664E+02  4.2420658988E+02  3.3000000000E-01 0. 9.
 1000022    1    5    0    0    0  1.6118864335E+02  6.5990379748E+01  3.1792792028E+01  2.1903967021E+02  1.2896157000E+02 0. 9.
     -24    2    5    0    0    0  1.9434161560E+02 -8.7396279213E+01  7.6562862364E+01  2.4028695568E+02  8.0431188000E+01 0. 9.
      24    2    6    0    0    0 -3.5149177726E+01  9.6435542266E+01  1.3290229008E+02  1.8619203318E+02  8.0431188000E+01 0. 9.
       5    1    6    0  101    0 -1.5278801672E+02  4.6799197387E+01  1.0568388517E+02  1.9164150520E+02  4.8000000000E+00 0. 9.
 1000022    1    8    0    0    0 -1.3626907525E+02  6.3560094325E+01 -1.6532998107E+02  2.5801983574E+02  1.2896157000E+02 0. 9.
     -24    2    8    0    0    0 -3.0737479556E+02  1.3238012532E+02 -1.1126425604E+02  3.6173563994E+02  8.0431188000E+01 0. 9.
      11    1   11    0    0    0  7.7207441702E+01 -2.0384616085E+01  6.8313664572E+01  1.0508700393E+02  5.1000000000E-04 0. 9.
     -12    1   11    0    0    0  1.1713417390E+02 -6.7011663129E+01  8.2491977924E+00  1.3519995175E+02  0.0000000000E+00 0. 9.
      -1    1   12    0    0  104 -1.6693690795E+01  8.9193749487E+01  5.5678233384E+01  1.0646303975E+02  3.3000000000E-01 0. 9.
       2    1   12    0  104    0 -1.8455486931E+01  7.2417927790E+00  7.7224056693E+01  7.9728993425E+01  3.3000000000E-01 0. 9.
       1    1   15    0  105    0 -8.6947416818E+00 -8.0007754278E+00 -1.2602409694E+01  1.7278326611E+01  3.3000000000E-01 0. 9.
      -2    1   15    0    0  105 -2.9868005388E+02  1.4038090075E+02 -9.8661846344E+01  3.4445731333E+02  3.3000000000E-01 0. 9.
</event>
<event>
    15   241  1.000000E+00  7.575857E+02  7.951894E-03  9.573800E-02
       2   -1    0    0  101    0  0.0000000000E+00  0.0000000000E+00  1.0716621035E+03  1.0716621035E+03  0.0000000000E+00 0. 9.
      -1   -1    0    0    0  102  0.0000000000E+00  0.0000000000E+00 -6.8117904162E+02  6.8117904162E+02  0.0000000000E+00 0. 9.
 1000024    2    1    2    0    0  2.5770187727E+02 -3.1175777474E+02  6.0321806228E+02  7.7450320992E+02  2.6903535800E+02 0. 9.
 1000021    2    1    2  101  102 -2.5770187727E+02  3.1175777474E+02 -2.1273500036E+02  9.7833793524E+02  8.6503512500E+02 0. 9.
 1000022    1    3    0    0    0  4.0432141652E+01 -1.3524904049E+02  1.9566956893E+02  2.7357764488E+02  1.2896157000E+02 0. 9.
      24    2    3    0    0    0  2.1726973562E+02 -1.7650873425E+02  4.0754849335E+02  5.0092556504E+02  8.0431188000E+01 0. 9.
 1000023    2    4    0    0    0 -1.2667918996E+02  2.2461420767E+02 -9.8654356180E+00  3.7269263832E+02  2.6889276000E+02 0. 9.
       2    1    4    0  101    0  2.6001329647E+01  1.3045302307E+02  1.5989337746E+02  2.0799053206E+02  3.3000000000E-01 0. 9.
      -2    1    4    0    0  102 -1.5702401696E+02 -4.3309455999E+01 -3.6276294220E+02  3.9765476486E+02  3.3000000000E-01 0. 9.
      -3    1    6    0    0  103  1.9111100870E+01 -4.0432469089E-01  6.5109527601E+01  6.7859400523E+01  5.0000000000E-01 0. 9.
       4    1    6    0  103    0  1.9815863475E+02 -1.7610440956E+02  3.4243896574E+02  4.3306616452E+02  1.5000000000E+00 0. 9.
 1000022    1    7    0    0    0 -4.4775909859E+01  1.3396467096E+02  2.5453998301E+01  1.9295182750E+02  1.2896157000E+02 0. 9.
      25    2    7    0    0    0 -8.1903280100E+01  9.0649536718E+01 -3.5319433919E+01  1.7974081082E+02  1.2701893900E+02 0. 9.
       5    1   13    0  104    0 -1.0982339289E+02  4.2531690239E+01 -9.5866019989E+00  1.1825846794E+02  4.8000000000E+00 0. 9.
      -5    1   13    0    0  104  2.7920112793E+01  4.8117846478E+01 -2.5732831920E+01  6.1482342885E+01  4.8000000000E+00 0. 9.
</event>
<event>
    20   259  1.000000E+00  1.104854E+03  7.986393E-03  9.169611E-02
      21   -1    0    0  101  102  0.0000000000E+00  0.0000000000E+00  5.5765136281E+02  5.5765136281E+02  0.0000000000E+00 0. 9.
       1   -1    0    0  102    0  0.0000000000E+00  0.0000000000E+00 -2.5149100628E+03  2.5149100628E+03  0.0000000000E+00 0. 9.
 1000021    2    1    2  101  103 -5.7847496761E+02  1.4207466334E+02 -3.8082306393E+02  1.1171975974E+03  8.6503512500E+02 0. 9.
 2000001    2    1    2  103    0  5.7847496761E+02 -1.4207466334E+02 -1.5764356361E+03  1.9553638283E+03  9.9170554500E+02 0. 9.
-1000024    2    3    0    0    0 -2.7173426459E+02 -1.0139706710E+02 -2.5958564945E+02  4.7316551969E+02  2.6903535800E+02 0. 9.
       2    1    3    0  101    0 -2.2184135629E+02  3.9235023390E+02 -1.3914612500E+02  4.7171394552E+02  3.3000000000E-01 0. 9.
      -1    1    3    0    0  103 -8.4899346722E+01 -1.4887850346E+02  1.7908710508E+01  1.7231813218E+02  3.3000000000E-01 0. 9.
 1000021    2    4    0  103  104  6.2509180855E+02 -1.4171954872E+02 -1.3631060363E+03  1.7369997217E+03  8.6503512500E+02 0. 9.
       1    1    4    0  104    0 -4.6616840943E+01 -3.5511461587E-01 -2.1332959984E+02  2.1836410656E+02  3.3000000000E-01 0. 9.
 1000022    1    5    0    0    0 -2.4390591927E+02 -3.7234194655E+01 -2.3368549021E+02  3.6347830414E+02  1.2896157000E+02 0. 9.
     -24    2    5    0    0    0 -2.7828345325E+01 -6.4162872446E+01 -2.5900159231E+01  1.0968721555E+02  8.0431188000E+01 0. 9.
-1000024    2    8    0    0    0  2.9180689672E+02  2.3422496275E+01 -1.6590531589E+02  4.3081837936E+02  2.6903535800E+02 0. 9.
       4    1    8    0  103    0  2.2917902260E+02 -2.7228795595E+02 -9.7946671939E+02  1.0421233419E+03  1.5000000000E+00 0. 9.
      -3    1    8    0    0  104  1.0410588923E+02  1.0714591095E+02 -2.1773400098E+02  2.6405800042E+02  5.0000000000E-01 0. 9.
       1    1   11    0  105    0 -4.8347432324E+01 -1.3189817507E+01 -2.1594007001E+01  5.4569730956E+01  3.3000000000E-01 0. 9.
      -2    1   11    0    0  105  2.0519086999E+01 -5.0973054939E+01 -4.3061522297E+00  5.5117484596E+01  3.3000000000E-01 0. 9.
 1000022    1   12    0    0    0  2.7533738060E+02 -4.5754589200E+00 -9.4371639232E+01  3.1838451723E+02  1.2896157000E+02 0. 9.
     -24    2   12    0    0    0  1.6469516114E+01  2.7997955195E+01 -7.1533676654E+01  1.1243386214E+02  8.0431188000E+01 0. 9.
       3    1   18    0  106    0  3.0044334264E+01  4.9081272277E+01 -6.4300797378E+01  8.6292965259E+01  5.0000000000E-01 0. 9.
      -4    1   18    0    0  106 -1.3574818149E+01 -2.1083317081E+01 -7.2328792755E+00  2.6140896878E+01  1.5000000000E+00 0. 9.
</event>
<event>
    17   258  1.000000E+00  9.631477E+02  7.973809E-03  9.312631E-02
      21   -1    0    0  101  102  0.0000000000E+00  0.0000000000E+00  6.5543432383E+02  6.5543432383E+02  0.0000000000E+00 0. 9.
       2   -1    0    0  102    0  0.0000000000E+00  0.0000000000E+00 -2.5023532990E+03  2.5023532990E+03  0.0000000000E+00 0. 9.
 1000021    2    1    2  101  103  2.4493027123E+02 -4.4468522266E+01  1.5175973275E+02  9.1284449454E+02  8.6503512500E+02 0. 9.
 1000002    2    1    2  103    0 -2.4493027123E+02  4.4468522266E+01 -1.9986787079E+03  2.2449431283E+03  9.9150632100E+02 0. 9.
-1000024    2    3    0    0    0 -4.2480020795E+01 -4.3957679030E+01  3.5486143902E+02  4.4949248545E+02  2.6903535800E+02 0. 9.
       2    1    3    0  101    0 -5.8474181343E+01 -3.0757382640E+00  6.4865644525E+00  5.8914127915E+01  3.3000000000E-01 0. 9.
      -1    1    3    0    0  103  3.4588447337E+02  2.5648950275E+00 -2.0958827073E+02  4.0443788117E+02  3.3000000000E-01 0. 9.
 1000024    2    4    0    0    0  1.0685995273E+02  4.1468341845E+02 -1.1144038037E+03  1.2237880734E+03  2.6903535800E+02 0. 9.
       1    1    4    0  103    0 -3.5179022396E+02 -3.7021489618E+02 -8.8427490424E+02  1.0211550549E+03  3.3000000000E-01 0. 9.
 1000022    1    5    0    0    0  3.5445010255E+01 -5.8738747126E+01  2.7422523055E+02  3.1070428509E+02  1.2896157000E+02 0. 9.
     -24    2    5    0    0    0 -7.7925031049E+01  1.4781068097E+01  8.0636208474E+01  1.3878820036E+02  8.0431188000E+01 0. 9.
 1000022    1    8    0    0    0  1.1220352873E+02  3.8012879039E+02 -8.8651939638E+02  9.7960974670E+02  1.2896157000E+02 0. 9.
      24    2    8    0    0    0 -5.3435759987E+00  3.4554628063E+01 -2.2788440730E+02  2.4417832667E+02  8.0431188000E+01 0. 9.
       1    1   11    0  104    0 -4.3947076300E+01  4.2829363021E+01  7.0662249004E+01  9.3589327310E+01  3.3000000000E-01 0. 9.
      -4    1   11    0    0  104 -3.3977954750E+01 -2.8048294925E+01  9.9739594697E+00  4.5198873046E+01  1.5000000000E+00 0. 9.
      -1    1   13    0    0  105  1.0698717975E+00 -2.6372699335E+01 -6.5223681889E+01  7.0362642610E+01  3.3000000000E-01 0. 9.
       2    1   13    0  105    0 -6.4134477962E+00  6.0927327397E+01 -1.6266072541E+02  1.7381568406E+02  3.3000000000E-01 0. 9.
</event>
<event>
    15   272  1.000000E+00  1.005261E+03  7.977728E-03  9.267563E-02
       2   -1    0    0  101    0  0.0000000000E+00  0.0000000000E+00  1.8882157494E+03  1.8882157494E+03  0.0000000000E+00 0. 9.
       2   -1    0    0  102    0  0.0000000000E+00  0.0000000000E+00 -6.7962895004E+02  6.7962895004E+02  0.0000000000E+00 0. 9.
 2000002    2    1    2  101    0  1.5213434840E+02  6.8784940682E+01  1.2393631796E+01  1.0053376494E+03  9.9129912700E+02 0. 9.
 2000002    2    1    2  102    0 -1.5213434840E+02 -6.8784940682E+01  1.1961931675E+03  1.5625070500E+03  9.9129912700E+02 0. 9.
 1000021    2    3    0  101  103  2.3218622280E+02  1.2889255966E+02  4.1278499791E+00  9.0489034729E+02  8.6503512500E+02 0. 9.
       2    1    3    0  103    0 -8.0051874398E+01 -6.0107618983E+01  8.2657818167E+00  1.0044730212E+02  3.3000000000E-01 0. 9.
 1000022    1    4    0    0    0 -9.1311800113E+01 -3.6579629011E+02  1.1946256804E+03  1.2593277466E+03  1.2896157000E+02 0. 9.
       2    1    4    0  102    0 -6.0822548285E+01  2.9701134943E+02  1.5674871600E+00  3.0317930336E+02  3.3000000000E-01 0. 9.
-1000024    2    5    0    0    0  3.0930098298E+02  1.9398389158E+02 -1.0877859581E+02  4.6637930382E+02  2.6903535800E+02 0. 9.
       4    1    5    0  101    0  3.9625369094E+00 -9.4632726925E+01  2.5513435491E+02  2.7215224372E+02  1.5000000000E+00 0. 9.
      -3    1    5    0    0  103 -8.1077297097E+01  2.9541395013E+01 -1.4222790912E+02  1.6635879976E+02  5.0000000000E-01 0. 9.
 1000022    1    9    0    0    0  2.1629568055E+02  1.6788325344E+02 -1.4495614649E+02  3.3557708377E+02  1.2896157000E+02 0. 9.
     -24    2    9    0    0    0  9.3005302431E+01  2.6100638137E+01  3.6177550680E+01  1.3080222004E+02  8.0431188000E+01 0. 9.
       1    1   13    0  104    0 -2.9085766377E-01 -1.3513753317E+01  2.5525438140E+01  2.8885342635E+01  3.3000000000E-01 0. 9.
      -2    1   13    0    0  104  9.3296160095E+01  3.9614391455E+01  1.0652112540E+01  1.0191687741E+02  3.3000000000E-01 0. 9.
</event>
<event>
    19   238  1.000000E+00  7.975453E+02  7.956576E-03  9.516656E-02
       1   -1    0    0  101    0  0.0000000000E+00  0.0000000000E+00  6.1064108559E+02  6.1064108559E+02  0.0000000000E+00 0. 9.
      -1   -1    0    0    0  102  0.0000000000E+00  0.0000000000E+00 -9.8031970056E+02  9.8031970056E+02  0.0000000000E+00 0. 9.
 1000023    2    1    2    0    0  1.9667053059E+02 -4.3255599237E+02 -2.8548229842E+01  5.4671958255E+02  2.6889276000E+02 0. 9.
 1000021    2    1    2  101  102 -1.9667053059E+02  4.3255599237E+02 -3.4113038513E+02  1.0442412036E+03  8.6503512500E+02 0. 9.
 1000022    1    3    0    0    0  1.4893707425E+02 -1.8503272926E+02  3.1196128265E+01  2.7207287248E+02  1.2896157000E+02 0. 9.
      23    2    3    0    0    0  4.7733456342E+01 -2.4752326311E+02 -5.9744358107E+01  2.7464671008E+02  9.1187600000E+01 0. 9.
-1000024    2    4    0    0    0 -5.6322065203E+01  2.4993697845E+02 -3.0595117740E+02  4.8127623568E+02  2.6903535800E+02 0. 9.
       6    2    4    0  101    0 -2.1121483345E+02  2.8130988481E+02 -1.2527550194E+02  4.1162986838E+02  1.7320000000E+02 0. 9.
      -5    1    4    0    0  102  7.0866368062E+01 -9.8690870884E+01  9.0096294214E+01  1.5133509953E+02  4.8000000000E+00 0. 9.
      16    1    6    0    0    0  5.2575780253E+00 -6.9414004643E+01  2.3548636971E+01  7.3487988613E+01  0.0000000000E+00 0. 9.
     -16    1    6    0    0    0  4.2475878317E+01 -1.7810925847E+02 -8.3292995078E+01  2.0115872146E+02  0.0000000000E+00 0. 9.
 1000022    1    7    0    0    0 -3.5547326272E+01  2.5481920667E+02 -2.4751475405E+02  3.7959330935E+02  1.2896157000E+02 0. 9.
     -24    2    7    0    0    0 -2.0774738930E+01 -4.8822282241E+00 -5.8436423346E+01  1.0168292633E+02  8.0431188000E+01 0. 9.
      24    2    8    0    0    0 -1.9609442380E+02  2.6321156946E+02 -6.1532678994E+01  3.4349497803E+02  8.0431188000E+01 0. 9.
       5    1    8    0  101    0 -1.5120409643E+01  1.8098315350E+01 -6.3742822948E+01  6.8134890355E+01  4.8000000000E+00 0. 9.
       1    1   13    0  103    0  5.4826615101E+00  8.2960225287E+00  1.7572202236E+01  2.0193433548E+01  3.3000000000E-01 0. 9.
      -2    1   13    0    0  103 -2.6257400440E+01 -1.3178250753E+01 -7.6008625581E+01  8.1489492780E+01  3.3000000000E-01 0. 9.
      -3    1   14    0    0  104 -1.0578282244E+02  1.1150971988E+02 -6.5056425057E+01  1.6690419884E+02  5.0000000000E-01 0. 9.
       4    1   14    0  104    0 -9.0311601367E+01  1.5170184958E+02  3.5237460623E+00  1.7659077919E+02  1.5000000000E+00 0. 9.
</event>
<event>
    13   259  1.000000E+00  9.576014E+02  7.973280E-03  9.318747E-02
      21   -1    0    0  101  102  0.0000000000E+00  0.0000000000E+00  6.5293210671E+02  6.5293210671E+02  0.0000000000E+00 0. 9.
       2   -1    0    0  102    0  0.0000000000E+00  0.0000000000E+00 -1.4755560249E+03  1.4755560249E+03  0.0000000000E+00 0. 9.
 1000021    2    1    2  101  103 -8.0136127803E+00 -2.2683993073E+02 -1.4384664331E+02  9.0581355501E+02  8.6503512500E+02 0. 9.
 2000002    2    1    2  103    0  8.0136127803E+00  2.2683993073E+02 -6.7877727487E+02  1.2226745766E+03  9.9129912700E+02 0. 9.
 1000024    2    3    0    0    0  9.1613170396E+01 -2.4412787333E+00  4.2425463427E+01  2.8736540612E+02  2.6903535800E+02 0. 9.
      -4    1    3    0    0  103  1.3249564758E+02  9.5922449849E+01 -1.4873105510E+02  2.2108683761E+02  1.5000000000E+00 0. 9.
       3    1    3    0  101    0 -2.3212243075E+02 -3.2032110185E+02 -3.7541051635E+01  3.9736131128E+02  5.0000000000E-01 0. 9.
 1000022    1    4    0    0    0 -4.4112984656E+02  2.1855220460E+02 -1.5361177380E+02  5.3159032276E+02  1.2896157000E+02 0. 9.
       2    1    4    0  103    0  4.4914345934E+02  8.2877261364E+00 -5.2516550107E+02  6.9108425383E+02  3.3000000000E-01 0. 9.
 1000022    1    5    0    0    0  5.8831974792E+01  8.1054080365E+01  3.2409536235E+01  1.6647050723E+02  1.2896157000E+02 0. 9.
      24    2    5    0    0    0  3.2781195604E+01 -8.3495359099E+01  1.0015927192E+01  1.2089489889E+02  8.0431188000E+01 0. 9.
     -13    1   11    0    0    0 -7.4121668272E+00  9.4328340835E+00  1.5379012430E+01  1.9504967656E+01  1.0566000000E-01 0. 9.
      14    1   11    0    0    0  4.0193362431E+01 -9.2928193182E+01 -5.3630852375E+00  1.0138993123E+02  0.0000000000E+00 0. 9.
</event>
<event>
    12   230  1.000000E+00  3.591132E+02  7.884514E-03  1.048844E-01
      -1   -1    0    0    0  101  0.0000000000E+00  0.0000000000E+00  1.3172808004E+02  1.3172808004E+02  0.0000000000E+00 0. 9.
       2   -1    0    0  101    0  0.0000000000E+00  0.0000000000E+00 -1.1485256676E+03  1.1485256676E+03  0.0000000000E+00 0. 9.
 1000023    2    1    2    0    0  8.3028719359E+01 -2.2299520170E+02 -2.6240604393E+02  4.4472561933E+02  2.6889276000E+02 0. 9.
 1000024    2    1    2    0    0 -8.3028719359E+01  2.2299520170E+02 -7.5439154360E+02  8.3552812827E+02  2.6903535800E+02 0. 9.
 1000022    1    3    0    0    0  6.5866805517E+00 -9.7134862097E+01 -1.4788196908E+02  2.1904047368E+02  1.2896157000E+02 0. 9.
      25    2    3    0    0    0  7.6442038807E+01 -1.2586033961E+02 -1.1452407485E+02  2.2568514565E+02  1.2701893900E+02 0. 9.
 1000022    1    4    0    0    0 -6.3580572418E+01  1.7638250193E+02 -3.3141658798E+02  4.0202153860E+02  1.2896157000E+02 0. 9.
      24    2    4    0    0    0 -1.9448146941E+01  4.6612699776E+01 -4.2297495562E+02  4.3350658967E+02  8.0431188000E+01 0. 9.
       5    1    6    0  102    0  7.9332030195E+00 -5.2262793994E+01  2.0815158878E+01  5.7014438394E+01  4.8000000000E+00 0. 9.
      -5    1    6    0    0  102  6.8508835788E+01 -7.3597545613E+01 -1.3533923372E+02  1.6867070726E+02  4.8000000000E+00 0. 9.
      -3    1    8    0    0  103 -3.3544266359E+01 -3.1798225259E+00 -8.2481783884E+01  8.9100077157E+01  5.0000000000E-01 0. 9.
       4    1    8    0  103    0  1.4096119418E+01  4.9792522301E+01 -3.4049317174E+02  3.4440651251E+02  1.5000000000E+00 0. 9.
</event>
<event>
    12   230  1.000000E+00  2.744386E+02  7.860521E-03  1.086226E-01
      -2   -1    0    0    0  101  0.0000000000E+00  0.0000000000E+00  8.0015727240E+01  8.0015727240E+01  0.0000000000E+00 0. 9.
       1   -1    0    0  101    0  0.0000000000E+00  0.0000000000E+00 -1.2734608611E+03  1.2734608611E+03  0.0000000000E+00 0. 9.
-1000024    2    1    2    0    0 -5.4233485633E+01 -5.7986750917E+00 -9.4247208394E+02  9.8163564955E+02  2.6903535800E+02 0. 9.
 1000023    2    1    2    0    0  5.4233485633E+01  5.7986750917E+00 -2.5097304992E+02  3.7184093879E+02  2.6889276000E+02 0. 9.
 1000022    1    3    0    0    0  3.1974693518E+01  5.2555147591E+01 -5.0196097637E+02  5.2190069256E+02  1.2896157000E+02 0. 9.
     -24    2    3    0    0    0 -8.6208179151E+01 -5.8353822683E+01 -4.4051110758E+02  4.5973495699E+02  8.0431188000E+01 0. 9.
 1000022    1    4    0    0    0  5.5979844304E+00 -3.2034785083E+01 -1.2874206526E+02  1.8510313554E+02  1.2896157000E+02 0. 9.
      25    2    4    0    0    0  4.8635501203E+01  3.7833460175E+01 -1.2223098466E+02  1.8673780325E+02  1.2701893900E+02 0. 9.
      15    1    6    0    0    0 -1.7318418645E+01 -1.1094469387E+01 -2.6012205519E+02  2.6093994750E+02  1.7770000000E+00 0. 9.
     -16    1    6    0    0    0 -6.8889760506E+01 -4.7259353296E+01 -1.8038905239E+02  1.9879500949E+02  0.0000000000E+00 0. 9.
      21    1    8    0  102  103 -3.8788722151E+01  1.6741458840E+00 -1.0275071955E+01  4.0161484462E+01  0.0000000000E+00 0. 9.
      21    1    8    0  103  102  8.7424223353E+01  3.6159314291E+01 -1.1195591271E+02  1.4657631879E+02  0.0000000000E+00 0. 9.
</event>
<event>
    26   272  1.000000E+00  1.114706E+03  7.987208E-03  9.160512E-02
       2   -1    0    0  101    0  0.0000000000E+00  0.0000000000E+00  2.1163709119E+03  2.1163709119E+03  0.0000000000E+00 0. 9.
       1   -1    0    0  102    0  0.0000000000E+00  0.0000000000E+00 -7.7204858633E+02  7.7204858633E+02  0.0000000000E+00 0. 9.
 2000002    2    1    2  102    0 -4.9062849627E+02 -1.3702418137E+02  1.3788954960E+03  1.7729970941E+03  9.9129912700E+02 0. 9.
 2000001    2    1    2  101    0  4.9062849627E+02  1.3702418137E+02 -3.4573170367E+01  1.1154224042E+03  9.9170554500E+02 0. 9.
 1000021    2    3    0  102  103 -3.3082834849E+02 -6.8096794570E+01  1.2461814815E+03  1.5541359728E+03  8.6503512500E+02 0. 9.
       2    1    3    0  103    0 -1.5980014778E+02 -6.8927386799E+01  1.3271401449E+02  2.1886112131E+02  3.3000000000E-01 0. 9.
 1000021    2    4    0  101  104  5.6287111248E+02  1.4304159834E+02 -2.4180674328E+01  1.0421877281E+03  8.6503512500E+02 0. 9.
       1    1    4    0  104    0 -7.2242616213E+01 -6.0174169664E+00 -1.0392496038E+01  7.3234676064E+01  3.3000000000E-01 0. 9.
 1000023    2    5    0    0    0 -3.2871826948E+02 -2.8651058103E+02  1.1763848352E+03  1.2830933757E+03  2.6889276000E+02 0. 9.
       1    1    5    0  102    0 -2.6013347726E+01  1.9856132303E+02  6.3083568100E+00  2.0035767399E+02  3.3000000000E-01 0. 9.
      -1    1    5    0    0  103  2.3903268715E+01  1.9852463435E+01  6.3488289426E+01  7.0684923102E+01  3.3000000000E-01 0. 9.
-1000024    2    7    0    0    0  2.1028320164E+02  1.8362757088E+02  2.4938434683E+02  4.6098881329E+02  2.6903535800E+02 0. 9.
       6    2    7    0  101    0  2.8493353845E+02  1.0316830020E+02 -1.5017261356E+02  3.7997483254E+02  1.7320000000E+02 0. 9.
      -5    1    7    0    0  104  6.7654372387E+01 -1.4375427275E+02 -1.2339240760E+02  2.0122408228E+02  4.8000000000E+00 0. 9.
 1000022    1    9    0    0    0 -1.5184315391E+02 -2.2277462034E+02  6.0713628503E+02  6.7670557113E+02  1.2896157000E+02 0. 9.
      23    2    9    0    0    0 -1.7687511557E+02 -6.3735960693E+01  5.6924855019E+02  6.0638780453E+02  9.1187600000E+01 0. 9.
 1000022    1   12    0    0    0  1.7283673567E+01  8.7279116672E+01  8.6440748278E+01  1.7893981971E+02  1.2896157000E+02 0. 9.
     -24    2   12    0    0    0  1.9299952808E+02  9.6348454207E+01  1.6294359855E+02  2.8204899358E+02  8.0431188000E+01 0. 9.
      24    2   13    0    0    0  2.3582585417E+02  2.2678310270E+01 -8.1154820892E+01  2.6302741342E+02  8.0431188000E+01 0. 9.
       5    1   13    0  101    0  4.9107684278E+01  8.0489989932E+01 -6.9017792667E+01  1.1694741912E+02  4.8000000000E+00 0. 9.
       1    1   16    0  105    0 -1.3016117215E+01 -1.4592585492E+01  1.0834164778E+01  2.2357345217E+01  3.3000000000E-01 0. 9.
      -1    1   16    0    0  105 -1.6385899835E+02 -4.9143375200E+01  5.5841438542E+02  5.8403045931E+02  3.3000000000E-01 0. 9.
       1    1   18    0  106    0  1.4849986208E+02  7.1608743789E+01  7.6552197732E+01  1.8177009958E+02  3.3000000000E-01 0. 9.
      -2    1   18    0    0  106  4.4499665999E+01  2.4739710418E+01  8.6391400818E+01  1.0027889400E+02  3.3000000000E-01 0. 9.
      -1    1   19    0    0  107  5.6275048594E+00 -5.8410977879E+00 -2.2281559847E+01  2.3714216064E+01  3.3000000000E-01 0. 9.
       2    1   19    0  107    0  2.3019834931E+02  2.8519408057E+01 -5.8873261046E+01  2.3931319735E+02  3.3000000000E-01 0. 9.
</event>
<event>
    11   272  1.000000E+00  1.213442E+03  7.995011E-03  9.074427E-02
       2   -1    0    0  101    0  0.0000000000E+00  0.0000000000E+00  5.7142217052E+02  5.7142217052E+02  0.0000000000E+00 0. 9.
       2   -1    0    0  102    0  0.0000000000E+00  0.0000000000E+00 -2.5772312423E+03  2.5772312423E+03  0.0000000000E+00 0. 9.
 2000002    2    1    2  102    0 -6.6505200292E+02  2.1788587998E+02 -1.0231975193E+03  1.5872540899E+03  9.9129912700E+02 0. 9.
 2000002    2    1    2  101    0  6.6505200292E+02 -2.1788587998E+02 -9.8261155251E+02  1.5613993229E+03  9.9129912700E+02 0. 9.
 1000022    1    3    0    0    0 -6.2904719215E+02 -2.5725121298E+02 -8.1015193486E+02  1.0652961094E+03  1.2896157000E+02 0. 9.
       2    1    3    0  102    0 -3.6004810769E+01  4.7513709296E+02 -2.1304558440E+02  5.2195798053E+02  3.3000000000E-01 0. 9.
 1000021    2    4    0  101  103  5.2778419488E+02 -9.6876362063E+01 -7.4478967456E+02  1.2613241505E+03  8.6503512500E+02 0. 9.
       2    1    4    0  103    0  1.3726780804E+02 -1.2100951792E+02 -2.3782187795E+02  3.0007517239E+02  3.3000000000E-01 0. 9.
 1000022    1    7    0    0    0  2.1087542956E+02 -1.5094655383E+02 -2.9161721955E+02  4.1100486393E+02  1.2896157000E+02 0. 9.
       4    1    7    0  101    0  4.6461234818E+02  1.9156432798E+02 -3.9812700337E+02  6.4114654070E+02  1.5000000000E+00 0. 9.
      -4    1    7    0    0  103 -1.4770358285E+02 -1.3749413621E+02 -5.5045451647E+01  2.0917274590E+02  1.5000000000E+00 0. 9.
</event>
<event>
    12   226  1.000000E+00  2.814537E+02  7.862767E-03  1.082605E-01
      -2   -1    0    0    0  101  0.0000000000E+00  0.0000000000E+00  9.8718209508E+01  9.8718209508E+01  0.0000000000E+00 0. 9.
       2   -1    0    0  101    0  0.0000000000E+00  0.0000000000E+00 -8.4634758076E+02  8.4634758076E+02  0.0000000000E+00 0. 9.
-1000024    2    1    2    0    0  8.2630165100E+01  2.8980851045E+00 -2.6619517721E+02  3.8739648851E+02  2.6903535800E+02 0. 9.
 1000024    2    1    2    0    0 -8.2630165100E+01 -2.8980851045E+00 -4.8143419404E+02  5.5766930176E+02  2.6903535800E+02 0. 9.
 1000022    1    3    0    0    0 -1.7224316824E+01  5.5131888980E+01 -1.5568202162E+02  2.1024790288E+02  1.2896157000E+02 0. 9.
     -24    2    3    0    0    0  9.9854481924E+01 -5.2233803875E+01 -1.1051315559E+02  1.7714858563E+02  8.0431188000E+01 0. 9.
 1000022    1    4    0    0    0 -7.5912682203E+01  7.3510549169E+01 -3.3114115379E+02  3.7074531208E+02  1.2896157000E+02 0. 9.
      24    2    4    0    0    0 -6.7174828973E+00 -7.6408634274E+01 -1.5029304025E+02  1.8692398968E+02  8.0431188000E+01 0. 9.
       3    1    6    0  102    0  2.7841388376E+01  1.5859057229E-01  7.9297325775E+00  2.8953388686E+01  5.0000000000E-01 0. 9.
      -4    1    6    0    0  102  7.2013093549E+01 -5.2392394447E+01 -1.1844288817E+02  1.4819519694E+02  1.5000000000E+00 0. 9.
      -1    1    8    0    0  103  9.5055884771E+00  1.5125937408E+01 -1.9351609917E+01  2.6339018606E+01  3.3000000000E-01 0. 9.
       2    1    8    0  103    0 -1.6223071374E+01 -9.1534571682E+01 -1.3094143033E+02  1.6058497107E+02  3.3000000000E-01 0. 9.
</event>
<event>
     9   259  1.000000E+00  9.802779E+02  7.975423E-03  9.294013E-02
      21   -1    0    0  101  102  0.0000000000E+00  0.0000000000E+00  5.6390707899E+02  5.6390707899E+02  0.0000000000E+00 0. 9.
       2   -1    0    0  102    0  0.0000000000E+00  0.0000000000E+00 -2.6376923916E+03  2.6376923916E+03  0.0000000000E+00 0. 9.
 1000021    2    1    2  101  103 -8.8983437856E+01  2.9588316627E+02 -4.1584560981E+01  9.1949983333E+02  8.6503512500E+02 0. 9.
 2000002    2    1    2  103    0  8.8983437856E+01 -2.9588316627E+02 -2.0322007516E+03  2.2820996372E+03  9.9129912700E+02 0. 9.
 1000022    1    3    0    0    0 -1.1456840035E+02 -6.1542836864E+01 -2.1598142845E+02  2.8318280863E+02  1.2896157000E+02 0. 9.
       2    1    3    0  101    0  6.7890123040E+01 -6.9074049843E+00  2.5228944373E+02  2.6135579842E+02  3.3000000000E-01 0. 9.
      -2    1    3    0    0  103 -4.2305160546E+01  3.6433340812E+02 -7.7892576256E+01  3.7496122628E+02  3.3000000000E-01 0. 9.
 1000022    1    4    0    0    0 -3.9028469836E+02 -3.4283378924E+02 -8.3671589278E+02  9.9326820375E+02  1.2896157000E+02 0. 9.
       2    1    4    0  103    0  4.7926813621E+02  4.6950622965E+01 -1.1954848588E+03  1.2888314335E+03  3.3000000000E-01 0. 9.
</event>
<event>
    22   244  1.000000E+00  9.468684E+02  7.972249E-03  9.330705E-02
      21   -1    0    0  101  102  0.0000000000E+00  0.0000000000E+00  8.4017379776E+02  8.4017379776E+02  0.0000000000E+00 0. 9.
      21   -1    0    0  103  104  0.0000000000E+00  0.0000000000E+00 -1.1001545475E+03  1.1001545475E+03  0.0000000000E+00 0. 9.
 1000021    2    1    2  101  104  2.8980016509E+02  2.5355457036E+02  3.8142617164E+01  9.4763636621E+02  8.6503512500E+02 0. 9.
 1000021    2    1    2  103  102 -2.8980016509E+02 -2.5355457036E+02 -2.9812336687E+02  9.9269197901E+02  8.6503512500E+02 0. 9.
 1000024    2    3    0    0    0  1.6446606359E+02  5.2755265639E+02  2.4212108130E+01  6.1508303616E+02  2.6903535800E+02 0. 9.
      -2    1    3    0    0  104  2.1164731241E+01 -1.4841729285E+02  6.2335932083E+01  1.6236229856E+02  3.3000000000E-01 0. 9.
       1    1    3    0  101    0  1.0416937026E+02 -1.2558079319E+02 -4.8405423050E+01  1.7019103149E+02  3.3000000000E-01 0. 9.
 1000024    2    4    0    0    0 -4.0754075968E+01  3.3361045381E+01 -1.9813802416E+02  3.3824924912E+02  2.6903535800E+02 0. 9.
      -6    2    4    0    0  102 -1.8800536616E+02  6.8756568334E+01 -1.2486450110E+02  2.9268219459E+02  1.7320000000E+02 0. 9.
       5    1    4    0  103    0 -6.1040722964E+01 -3.5567218407E+02  2.4879158390E+01  3.6176053531E+02  4.8000000000E+00 0. 9.
 1000022    1    5    0    0    0  1.0637882181E+02  3.8127036619E+02 -5.7666910568E+01  4.2028574206E+02  1.2896157000E+02 0. 9.
      24    2    5    0    0    0  5.8087241784E+01  1.4628229020E+02  8.1879018698E+01  1.9479729410E+02  8.0431188000E+01 0. 9.
 1000022    1    8    0    0    0 -8.1842284374E+01 -2.5269085170E+01 -6.7332295313E+01  1.6882360826E+02  1.2896157000E+02 0. 9.
      24    2    8    0    0    0  4.1088208406E+01  5.8630130550E+01 -1.3080572884E+02  1.6942564086E+02  8.0431188000E+01 0. 9.
     -24    2    9    0    0    0 -1.7110747021E+02  9.7555960875E+01 -6.2441911520E+01  2.2172753591E+02  8.0431188000E+01 0. 9.
      -5    1    9    0    0  102 -1.6897895952E+01 -2.8799392541E+01 -6.2422589579E+01  7.0954658678E+01  4.8000000000E+00 0. 9.
      -1    1   12    0    0  105  6.9787086352E+01  7.5807040269E+01  3.2842293175E+01  1.0814652050E+02  3.3000000000E-01 0. 9.
       2    1   12    0  105    0 -1.1699844568E+01  7.0475249930E+01  4.9036725524E+01  8.6650773601E+01  3.3000000000E-01 0. 9.
      -3    1   14    0    0  106  2.3118163713E+01  3.4866112813E+01 -1.3308630636E+02  1.3950738424E+02  5.0000000000E-01 0. 9.
       4    1   14    0  106    0  1.7970044692E+01  2.3764017737E+01  2.2805775179E+00  2.9918256618E+01  1.5000000000E+00 0. 9.
      11    1   15    0    0    0 -4.0816172126E+01 -1.1951514044E+01 -1.1138663145E+01  4.3964399369E+01  5.1000000000E-04 0. 9.
     -12    1   15    0    0    0 -1.3029129808E+02  1.0950747492E+02 -5.1303248375E+01  1.7776313654E+02  0.0000000000E+00 0. 9.
</event>
<event>
    20   259  1.000000E+00  9.788879E+02  7.975293E-03  9.295509E-02
       2   -1    0    0  101    0  0.0000000000E+00  0.0000000000E+00  1.1716210631E+03  1.1716210631E+03  0.0000000000E+00 0. 9.
      21   -1    0    0  102  101  0.0000000000E+00  0.0000000000E+00 -8.1502153144E+02  8.1502153144E+02  0.0000000000E+00 0. 9.
 2000002    2    1    2  103    0 -2.9555858824E+02  7.3394339542E+01  2.0596628853E+02  1.0572784304E+03  9.9129912700E+02 0. 9.
 1000021    2    1    2  102  103  2.9555858824E+02 -7.3394339542E+01  1.5063324310E+02  9.2936416413E+02  8.6503512500E+02 0. 9.
 1000021    2    3    0  103  104 -1.6756057503E+02  1.3757976585E+02  2.0012336720E+02  9.1396929262E+02  8.6503512500E+02 0. 9.
       2    1    3    0  104    0 -1.2799801321E+02 -6.4185426312E+01  5.8429213327E+00  1.4330913776E+02  3.3000000000E-01 0. 9.
 1000024    2    4    0    0    0  3.9452036082E+02 -2.2578071701E+01 -2.3765783188E+01  4.7864487956E+02  2.6903535800E+02 0. 9.
      -2    1    4    0    0  103  7.0963842113E+01  8.6140719915E+00  2.4660662664E+02  2.5675865385E+02  3.3000000000E-01 0. 9.
       1    1    4    0  102    0 -1.6992561469E+02 -5.9430339832E+01 -7.2207600349E+01  1.9396063072E+02  3.3000000000E-01 0. 9.
 1000023    2    5    0    0    0 -4.4613305625E+02  1.9874588562E+02  1.7630049034E+02  5.8473909584E+02  2.6889276000E+02 0. 9.
       3    1    5    0  103    0  1.0116417171E+02 -1.0432730673E+02  1.8995647372E+00  1.4533490604E+02  5.0000000000E-01 0. 9.
      -3    1    5    0    0  104  1.7740830951E+02  4.3161186962E+01  2.1923312123E+01  1.8389529074E+02  5.0000000000E-01 0. 9.
 1000022    1    7    0    0    0  8.4656323338E+01 -2.8916523339E+01  6.0173112892E+00  1.5706735172E+02  1.2896157000E+02 0. 9.
      24    2    7    0    0    0  3.0986403748E+02  6.3384516378E+00 -2.9783094478E+01  3.2157752784E+02  8.0431188000E+01 0. 9.
 1000022    1   10    0    0    0 -2.9988323643E+02  1.3913988491E+02  1.1119947960E+02  3.7186862447E+02  1.2896157000E+02 0. 9.
      25    2   10    0    0    0 -1.4624981982E+02  5.9606000713E+01  6.5101010737E+01  2.1287047137E+02  1.2701893900E+02 0. 9.
      -1    1   14    0    0  105  1.5282963467E+02 -3.6994436228E+01 -1.7406522086E+01  1.5820423969E+02  3.3000000000E-01 0. 9.
       2    1   14    0  105    0  1.5703440281E+02  4.3332887866E+01 -1.2376572391E+01  1.6337328815E+02  3.3000000000E-01 0. 9.
       5    1   16    0  106    0 -3.5129382614E+01  8.1327658322E+01  2.0315427122E+01  9.1016581512E+01  4.8000000000E+00 0. 9.
      -5    1   16    0    0  106 -1.1112043721E+02 -2.1721657609E+01  4.4785583615E+01  1.2185388986E+02  4.8000000000E+00 0. 9.
</event>
<event>
    19   271  1.000000E+00  1.046495E+03  7.981413E-03  9.225626E-02
       2   -1    0    0  101    0  0.0000000000E+00  0.0000000000E+00  2.5099642732E+03  2.5099642732E+03  0.0000000000E+00 0. 9.
       1   -1    0    0  102    0  0.0000000000E+00  0.0000000000E+00 -5.8930995113E+02  5.8930995113E+02  0.0000000000E+00 0. 9.
 1000002    2    1    2  102    0 -4.8225548680E+01  3.2702885070E+02  1.7489861861E+03  2.0374766346E+03  9.9150632100E+02 0. 9.
 1000001    2    1    2  101    0  4.8225548680E+01 -3.2702885070E+02  1.7166813596E+02  1.0617975897E+03  9.9431916400E+02 0. 9.
 1000023    2    3    0    0    0 -2.3645859029E+02  5.6922554732E+02  1.4947972430E+03  1.6391011264E+03  2.6889276000E+02 0. 9.
       2    1    3    0  102    0  1.8823304161E+02 -2.4219669662E+02  2.5418894315E+02  3.9837550819E+02  3.3000000000E-01 0. 9.
 1000021    2    4    0  101  103 -5.5302508892E+00 -2.0983163893E+02  6.1596556053E+01  8.9226666618E+02  8.6503512500E+02 0. 9.
       1    1    4    0  103    0  5.3755799569E+01 -1.1719721177E+02  1.1007157990E+02  1.6953092354E+02  3.3000000000E-01 0. 9.
 1000022    1    5    0    0    0 -1.1381747611E+02  3.5473015058E+02  9.0565702241E+02  9.8774167999E+02  1.2896157000E+02 0. 9.
      25    2    5    0    0    0 -1.2264111418E+02  2.1449539675E+02  5.8914022055E+02  6.5135944642E+02  1.2701893900E+02 0. 9.
-1000024    2    7    0    0    0 -1.8909465510E+02 -3.1860343486E+02  1.3632165765E+02  4.7773272391E+02  2.6903535800E+02 0. 9.
       4    1    7    0  101    0 -7.5039013497E+01  2.6311481399E+01 -1.1531628814E+02  1.4008298937E+02  1.5000000000E+00 0. 9.
      -3    1    7    0    0  103  2.5860341771E+02  8.2460314528E+01  4.0591186547E+01  2.7445095290E+02  5.0000000000E-01 0. 9.
     -15    1   10    0    0    0 -5.8629865211E+01  5.2264642495E+01  3.2838069335E+02  3.3764788085E+02  1.7770000000E+00 0. 9.
      15    1   10    0    0    0 -6.4011248965E+01  1.6223075425E+02  2.6075952719E+02  3.1371156557E+02  1.7770000000E+00 0. 9.
 1000022    1   11    0    0    0 -1.0288110867E+02 -2.7718526848E+02  1.4243924868E+02  3.5261341677E+02  1.2896157000E+02 0. 9.
     -24    2   11    0    0    0 -8.6213546432E+01 -4.1418166373E+01 -6.1175910322E+00  1.2511930713E+02  8.0431188000E+01 0. 9.
       1    1   17    0  104    0 -8.3566028068E+01 -1.6596642306E+01  2.1521413958E+01  8.7874966524E+01  3.3000000000E-01 0. 9.
      -2    1   17    0    0  104 -2.6475183644E+00 -2.4821524066E+01 -2.7639004990E+01  3.7244340608E+01  3.3000000000E-01 0. 9.
</event>
<event>
    12   230  1.000000E+00  2.898084E+02  7.865371E-03  1.078438E-01
      -1   -1    0    0    0  101  0.0000000000E+00  0.0000000000E+00  1.9922587863E+02  1.9922587863E+02  0.0000000000E+00 0. 9.
       2   -1    0    0  101    0  0.0000000000E+00  0.0000000000E+00 -6.8120315670E+02  6.8120315670E+02  0.0000000000E+00 0. 9.
 1000023    2    1    2    0    0  9.1641413931E+01  5.7000720281E+01 -5.1272419358E+02  5.8892838777E+02  2.6889276000E+02 0. 9.
 1000024    2    1    2    0    0 -9.1641413931E+01 -5.7000720281E+01  3.0746915504E+01  2.9150064756E+02  2.6903535800E+02 0. 9.
 1000022    1    3    0    0    0  2.1403222775E+01 -6.3230757582E+00 -2.1477097478E+02  2.5150693306E+02  1.2896157000E+02 0. 9.
      25    2    3    0    0    0  7.0238191156E+01  6.3323796039E+01 -2.9795321880E+02  3.3742145471E+02  1.2701893900E+02 0. 9.
 1000022    1    4    0    0    0 -9.0281504425E+01 -1.1050999827E+02  3.1395143902E+01  1.9488445643E+02  1.2896157000E+02 0. 9.
      24    2    4    0    0    0 -1.3599095061E+00  5.3509277994E+01 -6.4822839773E-01  9.6616191130E+01  8.0431188000E+01 0. 9.
       5    1    6    0  102    0  1.2218903484E+00  8.3601075486E+01 -1.2989012755E+02  1.5454810925E+02  4.8000000000E+00 0. 9.
      -5    1    6    0    0  102  6.9016300807E+01 -2.0277279447E+01 -1.6806309125E+02  1.8287334546E+02  4.8000000000E+00 0. 9.
      -1    1    8    0    0  103 -4.0586787886E+01  2.2369627839E+01  2.6695487611E+00  4.6421148103E+01  3.3000000000E-01 0. 9.
       2    1    8    0  103    0  3.9226878380E+01  3.1139650155E+01 -3.3177771588E+00  5.0195043027E+01  3.3000000000E-01 0. 9.
</event>
<event>
    12   230  1.000000E+00  2.697295E+02  7.858982E-03  1.088724E-01
       2   -1    0    0  101    0  0.0000000000E+00  0.0000000000E+00  1.0529375408E+02  1.0529375408E+02  0.0000000000E+00 0. 9.
      -1   -1    0    0    0  101  0.0000000000E+00  0.0000000000E+00 -8.9596171994E+02  8.9596171994E+02  0.0000000000E+00 0. 9.
 1000024    2    1    2    0    0 -1.6040516507E+01 -1.2450368237E+01 -1.5594667772E+02  3.1162750197E+02  2.6903535800E+02 0. 9.
 1000023    2    1    2    0    0  1.6040516507E+01  1.2450368237E+01 -6.3472128814E+02  6.8962797205E+02  2.6889276000E+02 0. 9.
 1000022    1    3    0    0    0  4.5732507066E+01  5.4175170354E+01 -7.0233972244E+01  1.6306535095E+02  1.2896157000E+02 0. 9.
      24    2    3    0    0    0 -6.1773023574E+01 -6.6625538591E+01 -8.5712705479E+01  1.4856215103E+02  8.0431188000E+01 0. 9.
 1000022    1    4    0    0    0 -1.9363503731E+01  9.0233604066E+00 -2.3775852991E+02  2.7132373909E+02  1.2896157000E+02 0. 9.
      25    2    4    0    0    0  3.5404020238E+01  3.4270078303E+00 -3.9696275823E+02  4.1830423297E+02  1.2701893900E+02 0. 9.
      -1    1    6    0    0  102 -5.1812445597E+01 -4.3920614320E+01 -9.9283950642E+01  1.2029531012E+02  3.3000000000E-01 0. 9.
       2    1    6    0  102    0 -9.9605779767E+00 -2.2704924271E+01  1.3571245162E+01  2.8266840910E+01  3.3000000000E-01 0. 9.
      21    1    8    0  103  104 -2.8635862388E+00  5.5620998034E+01 -1.0090467043E+02  1.1525470951E+02  0.0000000000E+00 0. 9.
      21    1    8    0  104  103  3.8267606477E+01 -5.2193990204E+01 -2.9605808780E+02  3.0304952346E+02  0.0000000000E+00 0. 9.
</event>
<event>
    14   248  1.000000E+00  7.920926E+02  7.955951E-03  9.524243E-02
      21   -1    0    0  101  102  0.0000000000E+00  0.0000000000E+00  1.5609279684E+03  1.5609279684E+03  0.0000000000E+00 0. 9.
       3   -1    0    0  102    0  0.0000000000E+00  0.0000000000E+00 -5.2820316518E+02  5.2820316518E+02  0.0000000000E+00 0. 9.
 1000023    2    1    2    0    0  3.1130200884E+02  3.8383045199E+00 -2.1452327568E+02  4.6394743827E+02  2.6889276000E+02 0. 9.
 1000003    2    1    2  101    0 -3.1130200884E+02 -3.8383045199E+00  1.2472480789E+03  1.6251836953E+03  9.9431916400E+02 0. 9.
 1000022    1    3    0    0    0  2.1055500826E+02  1.4598214916E+01 -1.4900117056E+02  2.8875414239E+02  1.2896157000E+02 0. 9.
      25    2    3    0    0    0  1.0074700058E+02 -1.0759910396E+01 -6.5522105116E+01  1.7519329588E+02  1.2701893900E+02 0. 9.
-1000024    2    4    0    0    0  1.2916379067E+02  1.0900872351E+02  2.2223904838E+01  3.1849664429E+02  2.6903535800E+02 0. 9.
       4    1    4    0  101    0 -4.4046579951E+02 -1.1284702803E+02  1.2250241741E+03  1.3066870510E+03  1.5000000000E+00 0. 9.
       5    1    6    0  103    0  5.4179356707E+01  5.7068170623E+01 -4.2790371464E+01  8.9700806470E+01  4.8000000000E+00 0. 9.
      -5    1    6    0    0  103  4.6567643873E+01 -6.7828081019E+01 -2.2731733653E+01  8.5492489410E+01  4.8000000000E+00 0. 9.
 1000022    1    7    0    0    0  8.3759539076E+01 -1.4236005734E+01 -2.7070656105E+01  1.5678721633E+02  1.2896157000E+02 0. 9.
     -24    2    7    0    0    0  4.5404251593E+01  1.2324472924E+02  4.9294560943E+01  1.6170942796E+02  8.0431188000E+01 0. 9.
       3    1   12    0  104    0 -9.3704469377E+00 -7.4025644047E+00  8.4865660252E-01  1.1982214053E+01  5.0000000000E-01 0. 9.
      -4    1   12    0    0  104  5.4774698530E+01  1.3064729365E+02  4.8445904340E+01  1.4972721390E+02  1.5000000000E+00 0. 9.
</event>
<event>
    12   226  1.000000E+00  2.771916E+02  7.861409E-03  1.084791E-01
       2   -1    0    0  101    0  0.0000000000E+00  0.0000000000E+00  1.3881796963E+03  1.3881796963E+03  0.0000000000E+00 0. 9.
      -2   -1    0    0    0  101  0.0000000000E+00  0.0000000000E+00 -5.5959210739E+01  5.5959210739E+01  0.0000000000E+00 0. 9.
 1000024    2    1    2    0    0 -6.4970373247E+01  1.5297550186E+01  5.9074516360E+02  6.5254504566E+02  2.6903535800E+02 0. 9.
-1000024    2    1    2    0    0  6.4970373247E+01 -1.5297550186E+01  7.4147532193E+02  7.9159386135E+02  2.6903535800E+02 0. 9.
 1000022    1    3    0    0    0 -3.0979012962E+01 -6.4529109915E+00  1.4020385532E+02  1.9310501518E+02  1.2896157000E+02 0. 9.
      24    2    3    0    0    0 -3.3991360285E+01  2.1750461178E+01  4.5054130828E+02  4.5944003048E+02  8.0431188000E+01 0. 9.
 1000022    1    4    0    0    0  1.0648425603E+01  6.6135340281E+01  4.7114503467E+02  4.9304766751E+02  1.2896157000E+02 0. 9.
     -24    2    4    0    0    0  5.4321947644E+01 -8.1432890467E+01  2.7033028726E+02  2.9854619384E+02  8.0431188000E+01 0. 9.
      -3    1    6    0    0  102 -4.8252771438E+01  8.6062170137E+00  1.4079456548E+02  1.4908305266E+02  5.0000000000E-01 0. 9.
       4    1    6    0  102    0  1.4261411153E+01  1.3144244164E+01  3.0974674280E+02  3.1035697781E+02  1.5000000000E+00 0. 9.
       1    1    8    0  103    0 -1.1369833173E+00 -5.3536155647E+01  6.5989671067E+01  8.4983282356E+01  3.3000000000E-01 0. 9.
      -2    1    8    0    0  103  5.5458930961E+01 -2.7896734820E+01  2.0434061619E+02  2.1356291149E+02  3.3000000000E-01 0. 9.
</event>
<event>
     8   229  1.000000E+00  6.537801E+02  7.938502E-03  9.741500E-02
       2   -1    0    0  101    0  0.0000000000E+00  0.0000000000E+00  1.2980264636E+03  1.2980264636E+03  0.0000000000E+00 0. 9.
      -1   -1    0    0    0  101  0.0000000000E+00  0.0000000000E+00 -3.4525051730E+02  3.4525051730E+02  0.0000000000E+00 0. 9.
 1000024    2    1    2    0    0 -1.3688661694E+02 -6.0347740560E+02  3.1271124853E+02  7.4370106480E+02  2.6903535800E+02 0. 9.
 1000022    1    1    2    0    0  1.3688661694E+02  6.0347740560E+02  6.4006469777E+02  8.9957591610E+02  1.2896157000E+02 0. 9.
 1000022    1    3    0    0    0  6.0633574930E+00 -3.4777112388E+02  1.7015466982E+02  4.0812402172E+02  1.2896157000E+02 0. 9.
      24    2    3    0    0    0 -1.4294997443E+02 -2.5570628172E+02  1.4255657872E+02  3.3557704307E+02  8.0431188000E+01 0. 9.
      -1    1    6    0    0  102 -1.3509985490E+02 -1.8647280509E+02  1.3106764711E+02  2.6495832663E+02  3.3000000000E-01 0. 9.
       2    1    6    0  102    0 -7.8501195303E+00 -6.9233476627E+01  1.1488931607E+01  7.0618716442E+01  3.3000000000E-01 0. 9.
</event>
<event>
    12   230  1.000000E+00  3.826455E+02  7.890199E-03  1.040393E-01
      -1   -1    0    0    0  101  0.0000000000E+00  0.0000000000E+00  3.5978133559E+02  3.5978133559E+02  0.0000000000E+00 0. 9.
       2   -1    0    0  101    0  0.0000000000E+00  0.0000000000E+00 -4.5379609241E+02  4.5379609241E+02  0.0000000000E+00 0. 9.
 1000023    2    1    2    0    0 -2.6965173880E+02  3.6929901753E+01 -1.7768417158E+02  4.2184222062E+02  2.6889276000E+02 0. 9.
 1000024    2    1    2    0    0  2.6965173880E+02 -3.6929901753E+01  8.3669414768E+01  3.9173520738E+02  2.6903535800E+02 0. 9.
 1000022    1    3    0    0    0 -1.1776108288E+02 -3.3117021692E+00 -1.1931044506E+02  2.1152945149E+02  1.2896157000E+02 0. 9.
      25    2    3    0    0    0 -1.5189065592E+02  4.0241603922E+01 -5.8373726524E+01  2.1031276912E+02  1.2701893900E+02 0. 9.
 1000022    1    4    0    0    0  1.4792878562E+02 -1.8599490489E+01 -3.8148837146E+01  2.0078667031E+02  1.2896157000E+02 0. 9.
      24    2    4    0    0    0  1.2172295318E+02 -1.8330411264E+01  1.2181825191E+02  1.9094853707E+02  8.0431188000E+01 0. 9.
       5    1    6    0  102    0 -9.9899748150E+01  7.6096819377E+01 -7.2960675065E+01  1.4531684591E+02  4.8000000000E+00 0. 9.
      -5    1    6    0    0  102 -5.1990907773E+01 -3.5855215455E+01  1.4586948540E+01  6.4995923211E+01  4.8000000000E+00 0. 9.
      -1    1    8    0    0  103  4.4481980601E+01  1.4092898907E+00  9.8176026553E+01  1.0779273531E+02  3.3000000000E-01 0. 9.
       2    1    8    0  103    0  7.7240972579E+01 -1.9739701155E+01  2.3642225361E+01  8.3155801761E+01  3.3000000000E-01 0. 9.
</event>
<event>
    22   276  1.000000E+00  1.008561E+03  7.978028E-03  9.264131E-02
       2   -1    0    0  101    0  0.0000000000E+00  0.0000000000E+00  2.4945945820E+03  2.4945945820E+03  0.0000000000E+00 0. 9.
      -2   -1    0    0    0  101  0.0000000000E+00  0.0000000000E+00 -6.7600620347E+02  6.7600620347E+02  0.0000000000E+00 0. 9.
 2000002    2    1    2  102    0 -1.5134731800E+02  1.0681341703E+02  1.9078662012E+03  2.1579950226E+03  9.9129912700E+02 0. 9.
-1000002    2    1    2    0  102  1.5134731800E+02 -1.0681341703E+02 -8.9277822702E+01  1.0126057628E+03  9.9150632100E+02 0. 9.
 1000021    2    3    0  102  103 -1.8397599584E+02  5.8702411652E+01  1.9034550487E+03  2.0996952231E+03  8.6503512500E+02 0. 9.
       2    1    3    0  103    0  3.2628677838E+01  4.8111005383E+01  4.4111525527E+00  5.8299799513E+01  3.3000000000E-01 0. 9.
 1000021    2    4    0  104  102  1.5287250464E+02 -2.1182861189E+02 -7.8198833480E+01  9.0699624505E+02  8.6503512500E+02 0. 9.
      -2    1    4    0    0  104 -1.5251866409E+00  1.0501519486E+02 -1.1078989222E+01  1.0560951779E+02  3.3000000000E-01 0. 9.
-1000024    2    5    0    0    0 -4.4977331006E+01 -1.7243435737E+02  2.2278511610E+02  3.9213492539E+02  2.6903535800E+02 0. 9.
       2    1    5    0  102    0 -6.8793477685E+01  3.6584192036E+01  7.5788823319E+02  7.6188294940E+02  3.3000000000E-01 0. 9.
      -1    1    5    0    0  103 -7.0205187146E+01  1.9455257698E+02  9.2278169937E+02  9.4567734830E+02  3.3000000000E-01 0. 9.
-1000024    2    7    0    0    0 -1.5796748557E+02  9.4817161910E+01 -2.5531636312E+02  4.1413824965E+02  2.6903535800E+02 0. 9.
       4    1    7    0  104    0  2.4180475890E+01 -9.2339363537E+01  7.2793122922E+01  1.2005141489E+02  1.5000000000E+00 0. 9.
      -3    1    7    0    0  102  2.8665951432E+02 -2.1430641027E+02  1.0432440672E+02  3.7280658051E+02  5.0000000000E-01 0. 9.
 1000022    1    9    0    0    0 -1.4898203896E+00 -1.5220512947E+02  2.2202278532E+02  2.9848588700E+02  1.2896157000E+02 0. 9.
     -24    2    9    0    0    0 -4.3487510616E+01 -2.0229227899E+01  7.6233078092E-01  9.3649038395E+01  8.0431188000E+01 0. 9.
 1000022    1   12    0    0    0 -1.7289031634E+02  3.2204095124E+01 -2.0574077853E+02  2.9981414195E+02  1.2896157000E+02 0. 9.
     -24    2   12    0    0    0  1.4922830769E+01  6.2613066786E+01 -4.9575584599E+01  1.1432410770E+02  8.0431188000E+01 0. 9.
       1    1   16    0  105    0 -9.9320667571E+00 -1.5112591977E+01  3.8714497922E+01  4.2731225535E+01  3.3000000000E-01 0. 9.
      -2    1   16    0    0  105 -3.3555443859E+01 -5.1166359221E+00 -3.7952167141E+01  5.0917812860E+01  3.3000000000E-01 0. 9.
       3    1   18    0  106    0  1.6424387575E+01  2.9701442952E+01  1.8516318843E+01  3.8665750790E+01  5.0000000000E-01 0. 9.
      -4    1   18    0    0  106 -1.5015568061E+00  3.2911623834E+01 -6.8091903442E+01  7.5658356912E+01  1.5000000000E+00 0. 9.
</event>
<event>
    20   259  1.000000E+00  9.980210E+02  7.977066E-03  9.275145E-02
      21   -1    0    0  101  102  0.0000000000E+00  0.0000000000E+00  5.3496512969E+02  5.3496512969E+02  0.0000000000E+00 0. 9.
       1   -1    0    0  102    0  0.0000000000E+00  0.0000000000E+00 -2.4491046955E+03  2.4491046955E+03  0.0000000000E+00 0. 9.
 1000021    2    1    2  101  103  2.0721488354E+02  2.9533895571E+02 -1.8046592862E+02  9.5447201404E+02  8.6503512500E+02 0. 9.
 2000001    2    1    2  103    0 -2.0721488354E+02 -2.9533895571E+02 -1.7336736372E+03  2.0295978112E+03  9.9170554500E+02 0. 9.
-1000024    2    3    0    0    0  4.9222676380E+01  3.1408817888E+02  3.6461664117E+01  4.1807144460E+02  2.6903535800E+02 0. 9.
       2    1    3    0  101    0  5.1202954107E+01  1.1058184238E+02 -3.1801989339E+02  3.4056841878E+02  3.3000000000E-01 0. 9.
      -1    1    3    0    0  103  1.0678925305E+02 -1.2933106556E+02  1.0109230066E+02  1.9583215067E+02  3.3000000000E-01 0. 9.
 1000021    2    4    0  103  104 -7.1678756030E+01 -2.1420757563E+02 -1.4122137463E+03  1.6714233941E+03  8.6503512500E+02 0. 9.
       1    1    4    0  104    0 -1.3553612751E+02 -8.1131380078E+01 -3.2145989091E+02  3.5817441708E+02  3.3000000000E-01 0. 9.
 1000022    1    5    0    0    0  4.1240132283E+01  9.9708641677E+01  7.7779390629E+01  1.8526543628E+02  1.2896157000E+02 0. 9.
     -24    2    5    0    0    0  7.9825440973E+00  2.1437953720E+02 -4.1317726512E+01  2.3280600832E+02  8.0431188000E+01 0. 9.
 1000024    2    8    0    0    0 -1.0559249360E+02 -1.0019149117E+02 -1.3729944091E+03  1.4066562412E+03  2.6903535800E+02 0. 9.
      -2    1    8    0    0  104  1.0031720864E+02 -1.1385332425E+02  4.4288953046E+01  1.5807511522E+02  3.3000000000E-01 0. 9.
       1    1    8    0  103    0 -6.6403471064E+01 -1.6276021361E-01 -8.3508290263E+01  1.0669203767E+02  3.3000000000E-01 0. 9.
       1    1   11    0  105    0 -6.9418847552E+00  6.4364854143E+01 -5.0001868478E+01  8.1800488777E+01  3.3000000000E-01 0. 9.
      -2    1   11    0    0  105  1.4924428853E+01  1.5001468306E+02  8.6841419661E+00  1.5100551954E+02  3.3000000000E-01 0. 9.
 1000022    1   12    0    0    0  5.6367833475E+00 -7.7083966935E+01 -9.3687866727E+02  9.4886586776E+02  1.2896157000E+02 0. 9.
      24    2   12    0    0    0 -1.1122927695E+02 -2.3107524238E+01 -4.3611574181E+02  4.5779037341E+02  8.0431188000E+01 0. 9.
     -13    1   18    0    0    0 -1.1972813177E+01  2.5528750411E+01 -7.4428131744E+01  7.9590346851E+01  1.0566000000E-01 0. 9.
      14    1   18    0    0    0 -9.9256463775E+01 -4.8636274648E+01 -3.6168761007E+02  3.7820002656E+02  0.0000000000E+00 0. 9.
</event>
<event>
    12   226  1.000000E+00  3.025763E+02  7.869213E-03  1.072354E-01
      -2   -1    0    0    0  101  0.0000000000E+00  0.0000000000E+00  1.5189171954E+02  1.5189171954E+02  0.0000000000E+00 0. 9.
       2   -1    0    0  101    0  0.0000000000E+00  0.0000000000E+00 -1.4204461873E+03  1.4204461873E+03  0.0000000000E+00 0. 9.
-1000024    2    1    2    0    0  6.0258584407E+01 -1.2466463599E+02 -3.7791473962E+01  3.0492718445E+02  2.6903535800E+02 0. 9.
 1000024    2    1    2    0    0 -6.0258584407E+01  1.2466463599E+02 -1.2307629938E+03  1.2674107224E+03  2.6903535800E+02 0. 9.
 1000022    1    3    0    0    0 -2.0545785620E+01 -1.3519987108E+02 -2.7484619104E+01  1.8996743213E+02  1.2896157000E+02 0. 9.
     -24    2    3    0    0    0  8.0804370027E+01  1.0535235091E+01 -1.0306854858E+01  1.1495975232E+02  8.0431188000E+01 0. 9.
 1000022    1    4    0    0    0 -7.6314422031E+01  1.2938576398E+01 -8.2582735997E+02  8.3941242115E+02  1.2896157000E+02 0. 9.
      24    2    4    0    0    0  1.6055837624E+01  1.1172605959E+02 -4.0493563381E+02  4.2799830122E+02  8.0431188000E+01 0. 9.
       1    1    6    0  102    0  1.1200631222E+01  3.9707886477E+00 -3.7958558197E+01  3.9776655750E+01  3.3000000000E-01 0. 9.
      -2    1    6    0    0  102  6.9603738805E+01  6.5644464434E+00  2.7651703339E+01  7.5183096573E+01  3.3000000000E-01 0. 9.
      -3    1    8    0    0  103  3.8780422097E+01  4.1405949455E+01 -2.4969060199E+02  2.5605472171E+02  5.0000000000E-01 0. 9.
       4    1    8    0  103    0 -2.2724584473E+01  7.0320110135E+01 -1.5524503182E+02  1.7194357950E+02  1.5000000000E+00 0. 9.
</event>
<event>
    12   230  1.000000E+00  3.248884E+02  7.875561E-03  1.062463E-01
       2   -1    0    0  101    0  0.0000000000E+00  0.0000000000E+00  6.3963064452E+02  6.3963064452E+02  0.0000000000E+00 0. 9.
      -1   -1    0    0    0  101  0.0000000000E+00  0.0000000000E+00 -1.7379280485E+02  1.7379280485E+02  0.0000000000E+00 0. 9.
 1000024    2    1    2    0    0  1.1517117806E+02  1.4123164738E+02  3.2433190493E+02  4.5910999432E+02  2.6903535800E+02 0. 9.
 1000023    2    1    2    0    0 -1.1517117806E+02 -1.4123164738E+02  1.4150593474E+02  3.5431345505E+02  2.6889276000E+02 0. 9.
 1000022    1    3    0    0    0 -1.2328971159E+01  1.0778968482E+02  1.9460233100E+02  2.5743304654E+02  1.2896157000E+02 0. 9.
      24    2    3    0    0    0  1.2750014922E+02  3.3441962559E+01  1.2972957393E+02  2.0167694778E+02  8.0431188000E+01 0. 9.
 1000022    1    4    0    0    0 -3.4389719174E+01 -9.4405650007E+01  4.5342677932E+01  1.6965295316E+02  1.2896157000E+02 0. 9.
      25    2    4    0    0    0 -8.0781458890E+01 -4.6825997376E+01  9.6163256810E+01  1.8466050188E+02  1.2701893900E+02 0. 9.
      -1    1    6    0    0  102  1.3457135034E+02  4.3512852034E+01  1.1371146063E+02  1.8147512723E+02  3.3000000000E-01 0. 9.
       2    1    6    0  102    0 -7.0712011137E+00 -1.0070889475E+01  1.6018113304E+01  2.0201820557E+01  3.3000000000E-01 0. 9.
       5    1    8    0  103    0  3.1512372972E+01  4.1387479675E+00  8.3937553350E+00  3.3221288562E+01  4.8000000000E+00 0. 9.
      -5    1    8    0    0  103 -1.1229383186E+02 -5.0964745343E+01  8.7769501475E+01  1.5143921332E+02  4.8000000000E+00 0. 9.
</event>
<event>
    12   230  1.000000E+00  3.975860E+02  7.893633E-03  1.035359E-01
       1   -1    0    0  101    0  0.0000000000E+00  0.0000000000E+00  1.4782463405E+03  1.4782463405E+03  0.0000000000E+00 0. 9.
      -2   -1    0    0    0  101  0.0000000000E+00  0.0000000000E+00 -1.1959523442E+02  1.1959523442E+02  0.0000000000E+00 0. 9.
 1000023    2    1    2    0    0 -1.1766603479E+02 -2.6811877584E+02  4.1930380717E+02  5.7779924956E+02  2.6889276000E+02 0. 9.
-1000024    2    1    2    0    0  1.1766603479E+02  2.6811877584E+02  9.3934729894E+02  1.0200423254E+03  2.6903535800E+02 0. 9.
 1000022    1    3    0    0    0 -9.5256050836E+01 -1.8144475779E+02  2.5338328718E+02  3.5047124292E+02  1.2896157000E+02 0. 9.
      25    2    3    0    0    0 -2.2409983953E+01 -8.6674018044E+01  1.6592051999E+02  2.2732800664E+02  1.2701893900E+02 0. 9.
 1000022    1    4    0    0    0  2.3250856913E+01  1.3623701090E+02  6.6499546835E+02  6.9134013695E+02  1.2896157000E+02 0. 9.
     -24    2    4    0    0    0  9.4415177876E+01  1.3188176494E+02  2.7435183059E+02  3.2870218845E+02  8.0431188000E+01 0. 9.
       5    1    6    0  102    0 -1.6669201715E+01 -3.1743064088E+01  1.6800040668E+02  1.7185069405E+02  4.8000000000E+00 0. 9.
      -5    1    6    0    0  102 -5.7407822376E+00 -5.4930953956E+01 -2.0798866857E+00  5.5477312587E+01  4.8000000000E+00 0. 9.
       3    1    8    0  103    0  1.7329037238E+01 -9.6171045674E+00  3.3117762614E+01  3.8598192087E+01  5.0000000000E-01 0. 9.
      -4    1    8    0    0  103  7.7086140638E+01  1.4149886950E+02  2.4123406798E+02  2.9010399636E+02  1.5000000000E+00 0. 9.
</event>
<event>
    13   258  1.000000E+00  1.146171E+03  7.989766E-03  9.132098E-02
       2   -1    0    0  101    0  0.0000000000E+00  0.0000000000E+00  1.3362728241E+03  1.3362728241E+03  0.0000000000E+00 0. 9.
      21   -1    0    0  102  101  0.0000000000E+00  0.0000000000E+00 -1.2587732611E+03  1.2587732611E+03  0.0000000000E+00 0. 9.
 1000002    2    1    2  103    0  1.7849852242E+02 -6.4510473681E+02  6.4898340606E+02  1.3609871748E+03  9.9150632100E+02 0. 9.
 1000021    2    1    2  102  103 -1.7849852242E+02  6.4510473681E+02 -5.7148384315E+02  1.2340589104E+03  8.6503512500E+02 0. 9.
 1000023    2    3    0    0    0 -6.6929996584E+01 -5.2062689871E+02 -6.7353809566E+01  5.9360916785E+02  2.6889276000E+02 0. 9.
       2    1    3    0  103    0  2.4542851900E+02 -1.2447783809E+02  7.1633721562E+02  7.6737800692E+02  3.3000000000E-01 0. 9.
 1000022    1    4    0    0    0  7.8549664229E+01  7.5829377546E+02 -3.7582840697E+02  8.5968458035E+02  1.2896157000E+02 0. 9.
       4    1    4    0  102    0 -2.1159012313E+02 -3.0748652063E+01 -1.7879563781E+02  2.7872206570E+02  1.5000000000E+00 0. 9.
      -4    1    4    0    0  103 -4.5458063511E+01 -8.2440386596E+01 -1.6859798363E+01  9.5652264381E+01  1.5000000000E+00 0. 9.
 1000022    1    5    0    0    0 -2.4195237926E-01 -2.8013402395E+02 -1.5240284970E+01  3.0876930343E+02  1.2896157000E+02 0. 9.
      25    2    5    0    0    0 -6.6688044204E+01 -2.4049287476E+02 -5.2113524596E+01  2.8483986442E+02  1.2701893900E+02 0. 9.
       5    1   11    0  104    0 -1.5689054262E+00 -1.8671415527E+02 -6.7989093648E+01  1.9877171353E+02  4.8000000000E+00 0. 9.
      -5    1   11    0    0  104 -6.5119138778E+01 -5.3778719490E+01  1.5875569051E+01  8.6068150891E+01  4.8000000000E+00 0. 9.
</event>
<event>
    20   259  1.000000E+00  9.812849E+02  7.975517E-03  9.292931E-02
      21   -1    0    0  101  102  0.0000000000E+00  0.0000000000E+00  5.9117519305E+02  5.9117519305E+02  0.0000000000E+00 0. 9.
       2   -1    0    0  102    0  0.0000000000E+00  0.0000000000E+00 -1.6227721197E+03  1.6227721197E+03  0.0000000000E+00 0. 9.
 1000021    2    1    2  101  103 -1.6643198021E+02  2.6408426407E+02 -4.8580426817E+02  1.0400632947E+03  8.6503512500E+02 0. 9.
 2000002    2    1    2  103    0  1.6643198021E+02 -2.6408426407E+02 -5.4579265850E+02  1.1738840181E+03  9.9129912700E+02 0. 9.
 1000024    2    3    0    0    0  9.3047185052E+01 -7.0693004804E+01 -9.7640962000E+01  3.0914246051E+02  2.6903535800E+02 0. 9.
      -2    1    3    0    0  103 -3.0266457782E+02  7.3322140603E+01 -7.4322390822E+01  3.2016544106E+02  3.3000000000E-01 0. 9.
       1    1    3    0  101    0  4.3185412556E+01  2.6145512827E+02 -3.1384091534E+02  4.1075539315E+02  3.3000000000E-01 0. 9.
 1000021    2    4    0  103  104  1.6087933397E+02 -3.4936230662E+02 -5.3591915553E+02  1.0878562819E+03  8.6503512500E+02 0. 9.
       2    1    4    0  104    0  5.5526462436E+00  8.5278042549E+01 -9.8735029764E+00  8.6027736122E+01  3.3000000000E-01 0. 9.
 1000022    1    5    0    0    0  8.5955594337E+01 -5.2091393845E+00  1.5079784104E+01  1.5580110961E+02  1.2896157000E+02 0. 9.
      24    2    5    0    0    0  7.0915907159E+00 -6.5483865419E+01 -1.1272074610E+02  1.5334135090E+02  8.0431188000E+01 0. 9.
 1000024    2    8    0    0    0  2.2396963988E+02  5.2887658245E+00 -3.0766877040E+01  3.5144984736E+02  2.6903535800E+02 0. 9.
      -2    1    8    0    0  104  1.4459337925E+02 -2.7915350152E+02 -2.8134594198E+02  4.2188810211E+02  3.3000000000E-01 0. 9.
       1    1    8    0  103    0 -2.0768368515E+02 -7.5497570928E+01 -2.2380633651E+02  3.1451833247E+02  3.3000000000E-01 0. 9.
      -3    1   11    0    0  105  3.0456707445E+01 -7.0911724815E+01 -6.9358280329E+01  1.0376369690E+02  5.0000000000E-01 0. 9.
       4    1   11    0  105    0 -2.3365116729E+01  5.4278593960E+00 -4.3362465775E+01  4.9577653993E+01  1.5000000000E+00 0. 9.
 1000022    1   12    0    0    0  5.6479622526E+01  4.3925982643E+01 -6.0408603753E+01  1.5937291381E+02  1.2896157000E+02 0. 9.
      24    2   12    0    0    0  1.6749001735E+02 -3.8637216818E+01  2.9641726713E+01  1.9207693355E+02  8.0431188000E+01 0. 9.
      -1    1   18    0    0  106  8.6247642434E+00  1.6645199626E+01 -6.8368485998E+00  1.9957470472E+01  3.3000000000E-01 0. 9.
       2    1   18    0  106    0  1.5886525311E+02 -5.5282416445E+01  3.6478575312E+01  1.7211946308E+02  3.3000000000E-01 0. 9.
</event>
<event>
     9   259  1.000000E+00  9.361536E+02  7.971208E-03  9.342811E-02
      21   -1    0    0  101  102  0.0000000000E+00  0.0000000000E+00  7.2585044081E+02  7.2585044081E+02  0.0000000000E+00 0. 9.
       1   -1    0    0  102    0  0.0000000000E+00  0.0000000000E+00 -1.2046841777E+03  1.2046841777E+03  0.0000000000E+00 0. 9.
 1000021    2    1    2  101  103 -1.0165158488E+02  1.2952202421E+01 -1.7726147279E+02  8.8893655650E+02  8.6503512500E+02 0. 9.
 2000001    2    1    2  103    0  1.0165158488E+02 -1.2952202421E+01 -3.0157226406E+02  1.0415980620E+03  9.9170554500E+02 0. 9.
 1000022    1    3    0    0    0 -3.8022767789E+02 -1.7341071105E+01 -1.8141470954E+02  4.4092650539E+02  1.2896157000E+02 0. 9.
       2    1    3    0  101    0  2.9092412859E+02  4.9208250867E+01 -1.2241387460E+02  3.1944258662E+02  3.3000000000E-01 0. 9.
      -2    1    3    0    0  103 -1.2348035584E+01 -1.8914977341E+01  1.2656711135E+02  1.2856746449E+02  3.3000000000E-01 0. 9.
 1000022    1    4    0    0    0 -2.1270347993E+02 -3.1969429147E+02 -4.2324108523E+02  5.8584239616E+02  1.2896157000E+02 0. 9.
       1    1    4    0  103    0  3.1435506481E+02  3.0674208905E+02  1.2166882118E+02  4.5575566581E+02  3.3000000000E-01 0. 9.
</event>
<event>
    12   226  1.000000E+00  3.162259E+02  7.873149E-03  1.066198E-01
       2   -1    0    0  101    0  0.0000000000E+00  0.0000000000E+00  1.3693919606E+03  1.3693919606E+03  0.0000000000E+00 0. 9.
      -2   -1    0    0    0  101  0.0000000000E+00  0.0000000000E+00 -1.0225699607E+02  1.0225699607E+02  0.0000000000E+00 0. 9.
 1000024    2    1    2    0    0  8.6114044520E+01  1.4213786273E+02  1.0269929801E+03  1.0745759190E+03  2.6903535800E+02 0. 9.
-1000024    2    1    2    0    0 -8.6114044520E+01 -1.4213786273E+02  2.4014198441E+02  3.9707303763E+02  2.6903535800E+02 0. 9.
 1000022    1    3    0    0    0  1.1208582028E+02  1.4417242171E+02  6.2478999482E+02  6.6358310893E+02  1.2896157000E+02 0. 9.
      24    2    3    0    0    0 -2.5971775764E+01 -2.0345589800E+00  4.0220298530E+02  4.1099281010E+02  8.0431188000E+01 0. 9.
 1000022    1    4    0    0    0 -4.0635039689E+01 -1.2778434753E+02  2.3987714190E+02  3.0356576827E+02  1.2896157000E+02 0. 9.
     -24    2    4    0    0    0 -4.5479004831E+01 -1.4353515200E+01  2.6484251249E-01  9.3507269363E+01  8.0431188000E+01 0. 9.
      -1    1    6    0    0  102 -4.3845488289E+01 -9.9885668885E-01  3.7974740259E+02  3.8227166156E+02  3.3000000000E-01 0. 9.
       2    1    6    0  102    0  1.7873712525E+01 -1.0357022912E+00  2.2455582713E+01  2.8721148543E+01  3.3000000000E-01 0. 9.
       1    1    8    0  103    0  5.7986515323E-01  2.4033724011E+01  1.9048953373E+01  3.0674544137E+01  3.3000000000E-01 0. 9.
      -2    1    8    0    0  103 -4.6058869984E+01 -3.8387239211E+01 -1.8784110860E+01  6.2832725225E+01  3.3000000000E-01 0. 9.
</event>
<event>
    22   272  1.000000E+00  1.075557E+03  7.983926E-03  9.197266E-02
       1   -1    0    0  101    0  0.0000000000E+00  0.0000000000E+00  1.2895426408E+03  1.2895426408E+03  0.0000000000E+00 0. 9.
       2   -1    0    0  102    0  0.0000000000E+00  0.0000000000E+00 -9.6332412778E+02  9.6332412778E+02  0.0000000000E+00 0. 9.
 2000001    2    1    2  102    0 -2.9871579537E+02  2.9071247141E+02  4.5852580091E+02  1.1693890138E+03  9.9170554500E+02 0. 9.
 2000002    2    1    2  101    0  2.9871579537E+02 -2.9071247141E+02 -1.3230728795E+02  1.0834777548E+03  9.9129912700E+02 0. 9.
 1000021    2    3    0  102  103 -3.3420435121E+02  3.4771230914E+02  4.7766880342E+02  1.0995679386E+03  8.6503512500E+02 0. 9.
       1    1    3    0  103    0  3.5488555833E+01 -5.6999837732E+01 -1.9143002508E+01  6.9821075196E+01  3.3000000000E-01 0. 9.
 1000021    2    4    0  101  104  3.0944908029E+02 -1.6104859459E+02 -6.0066594229E+01  9.3465990945E+02  8.6503512500E+02 0. 9.
       2    1    4    0  104    0 -1.0733284912E+01 -1.2966387681E+02 -7.2240693716E+01  1.4881784531E+02  3.3000000000E-01 0. 9.
 1000023    2    5    0    0    0 -2.4467205674E+02  4.5216044007E+01  3.2180612894E+02  4.8761809543E+02  2.6889276000E+02 0. 9.
       1    1    5    0  102    0  8.1143613824E+01 -1.1020735251E+02  8.1242839556E+01  1.5915544129E+02  3.3000000000E-01 0. 9.
      -1    1    5    0    0  103 -1.7067590829E+02  4.1270361764E+02  7.4619834920E+01  4.5279440185E+02  3.3000000000E-01 0. 9.
-1000024    2    7    0    0    0  8.9574960816E+00 -2.4608144343E+02 -1.8121588813E+02  4.0725365008E+02  2.6903535800E+02 0. 9.
       4    1    7    0  101    0  3.7576267426E+02 -1.3809152063E+01  3.8056870890E+01  3.7794028030E+02  1.5000000000E+00 0. 9.
      -3    1    7    0    0  104 -7.5271090060E+01  9.8842000899E+01  8.3092423007E+01  1.4946597908E+02  5.0000000000E-01 0. 9.
 1000022    1    9    0    0    0 -1.4338508997E+02  6.2641919112E+01  1.7033440626E+02  2.6481727766E+02  1.2896157000E+02 0. 9.
      25    2    9    0    0    0 -1.0128696677E+02 -1.7425875105E+01  1.5147172268E+02  2.2280081777E+02  1.2701893900E+02 0. 9.
 1000022    1   12    0    0    0  7.4830859279E+01 -1.9156964805E+02 -1.5154365069E+02  2.8617329043E+02  1.2896157000E+02 0. 9.
     -24    2   12    0    0    0 -6.5873363197E+01 -5.4511795382E+01 -2.9672237437E+01  1.2108035965E+02  8.0431188000E+01 0. 9.
       5    1   16    0  105    0 -1.2711980885E+02  2.6816055575E+00  1.3611397290E+02  1.8632415417E+02  4.8000000000E+00 0. 9.
      -5    1   16    0    0  105  2.5832842080E+01 -2.0107480663E+01  1.5357749786E+01  3.6476663595E+01  4.8000000000E+00 0. 9.
       1    1   18    0  106    0 -2.8049606370E+01 -4.4268695351E+01  2.1482957993E+01  5.6640305347E+01  3.3000000000E-01 0. 9.
      -2    1   18    0    0  106 -3.7823756827E+01 -1.0243100030E+01 -5.1155195430E+01  6.4440054300E+01  3.3000000000E-01 0. 9.
</event>
<event>
    15   241  1.000000E+00  8.348027E+02  7.960740E-03  9.466467E-02
       1   -1    0    0  101    0  0.0000000000E+00  0.0000000000E+00  1.3945734418E+03  1.3945734418E+03  0.0000000000E+00 0. 9.
      -2   -1    0    0    0  102  0.0000000000E+00  0.0000000000E+00 -5.6427965870E+02  5.6427965870E+02  0.0000000000E+00 0. 9.
 1000021    2    1    2  101  102 -5.6357532052E+01 -5.3234049188E+02  1.1188391808E+02  1.0234091798E+03  8.6503512500E+02 0. 9.
-1000024    2    1    2    0    0  5.6357532052E+01  5.3234049188E+02  7.1840986501E+02  9.3544392067E+02  2.6903535800E+02 0. 9.
 1000023    2    3    0    0    0  4.8467080073E+01 -4.8870816029E+01 -2.0508330133E+02  3.4510852116E+02  2.6889276000E+02 0. 9.
       2    1    3    0  101    0  5.5555483725E+01 -2.3222238741E+00  1.2357078873E+02  1.3550517785E+02  3.3000000000E-01 0. 9.
      -2    1    3    0    0  102 -1.6038009585E+02 -4.8114745198E+02  1.9339643068E+02  5.4279548081E+02  3.3000000000E-01 0. 9.
 1000022    1    4    0    0    0 -1.2937407755E+01  2.6286319490E+02  4.6990706043E+02  5.5381239398E+02  1.2896157000E+02 0. 9.
     -24    2    4    0    0    0  6.9294939807E+01  2.6947729698E+02  2.4850280458E+02  3.8163152668E+02  8.0431188000E+01 0. 9.
 1000022    1    5    0    0    0  3.4693353413E+00 -4.8253321073E+01 -1.3645048026E+02  1.9388202439E+02  1.2896157000E+02 0. 9.
      25    2    5    0    0    0  4.4997744732E+01 -6.1749495614E-01 -6.8632821068E+01  1.5122649676E+02  1.2701893900E+02 0. 9.
      15    1    9    0    0    0 -9.5706585528E+00  4.0869798207E+01  1.2755155043E+01  4.3906601096E+01  1.7770000000E+00 0. 9.
     -16    1    9    0    0    0  7.8865598360E+01  2.2860749877E+02  2.3574764954E+02  3.3772492559E+02  0.0000000000E+00 0. 9.
       5    1   11    0  103    0  6.9144026932E+01  1.9119767228E+01  4.0260584784E+00  7.2011881701E+01  4.8000000000E+00 0. 9.
      -5    1   11    0    0  103 -2.4146282200E+01 -1.9737262184E+01 -7.2658879547E+01  7.9214615063E+01  4.8000000000E+00 0. 9.
</event>
<event>
    12   226  1.000000E+00  2.795413E+02  7.862160E-03  1.083581E-01
       2   -1    0    0  101    0  0.0000000000E+00  0.0000000000E+00  1.6227158396E+02  1.6227158396E+02  0.0000000000E+00 0. 9.
      -2   -1    0    0    0  101  0.0000000000E+00  0.0000000000E+00 -4.9954974281E+02  4.9954974281E+02  0.0000000000E+00 0. 9.
 1000024    2    1    2    0    0  3.0929444815E+01  6.9330360028E+01 -2.3143697381E+02  3.6291379979E+02  2.6903535800E+02 0. 9.
-1000024    2    1    2    0    0 -3.0929444815E+01 -6.9330360028E+01 -1.0584118504E+02  2.9890752698E+02  2.6903535800E+02 0. 9.
 1000022    1    3    0    0    0  2.9163756154E+01 -4.2588136331E+01 -9.0539538212E+01  1.6580943443E+02  1.2896157000E+02 0. 9.
      24    2    3    0    0    0  1.7656886612E+00  1.1191849636E+02 -1.4089743560E+02  1.9710436536E+02  8.0431188000E+01 0. 9.
 1000022    1    4    0    0    0  1.7445516626E+01 -6.9136923465E+01 -1.3579178977E+02  2.0038651886E+02  1.2896157000E+02 0. 9.
     -24    2    4    0    0    0 -4.8374961441E+01 -1.9343656288E-01  2.9950604733E+01  9.8521008111E+01  8.0431188000E+01 0. 9.
      -1    1    6    0    0  102 -1.5848500339E+01  3.4116326000E+01 -1.0127094220E+02  1.0803245483E+02  3.3000000000E-01 0. 9.
       2    1    6    0  102    0  1.7614189000E+01  7.7802170358E+01 -3.9626493397E+01  8.9071910530E+01  3.3000000000E-01 0. 9.
       3    1    8    0  103    0  1.2965646938E+01 -1.7668425818E+01  2.6829123286E+01  3.4645824102E+01  5.0000000000E-01 0. 9.
      -4    1    8    0    0  103 -6.1340608379E+01  1.7474989255E+01  3.1214814472E+00  6.3875184009E+01  1.5000000000E+00 0. 9.
</event>
<event>
    12   276  1.000000E+00  1.097615E+03  7.985789E-03  9.176360E-02
       2   -1    0    0  101    0  0.0000000000E+00  0.0000000000E+00  1.6213611769E+03  1.6213611769E+03  0.0000000000E+00 0. 9.
      -1   -1    0    0    0  101  0.0000000000E+00  0.0000000000E+00 -7.8262665522E+02  7.8262665522E+02  0.0000000000E+00 0. 9.
 1000002    2    1    2  102    0 -4.4733153887E+02  1.4618549155E+02  1.4904739633E+02  1.1075990315E+03  9.9150632100E+02 0. 9.
-2000001    2    1    2    0  102  4.4733153887E+02 -1.4618549155E+02  6.8968712537E+02  1.2963888007E+03  9.9170554500E+02 0. 9.
 1000024    2    3    0    0    0 -3.8969348990E+02  4.2930770476E+02  3.7477539558E+02  7.4094719274E+02  2.6903535800E+02 0. 9.
       1    1    3    0  102    0 -5.7638048966E+01 -2.8312221322E+02 -2.2572799926E+02  3.6665183874E+02  3.3000000000E-01 0. 9.
 1000022    1    4    0    0    0  2.9902995646E+02 -3.2561363616E+02 -1.0158472118E+02  4.7158636222E+02  1.2896157000E+02 0. 9.
      -1    1    4    0    0  102  1.4830158241E+02  1.7942814462E+02  7.9127184655E+02  8.2480243844E+02  3.3000000000E-01 0. 9.
 1000022    1    5    0    0    0 -1.6928276335E+02  1.9830288137E+02  2.6604387050E+02  3.9419679641E+02  1.2896157000E+02 0. 9.
      24    2    5    0    0    0 -2.2041072655E+02  2.3100482339E+02  1.0873152508E+02  3.4675039633E+02  8.0431188000E+01 0. 9.
      -1    1   10    0    0  103 -2.2214339532E+02  2.3544004585E+02  1.0988502071E+02  3.4183991861E+02  3.3000000000E-01 0. 9.
       2    1   10    0  103    0  1.7326687774E+00 -4.4352224562E+00 -1.1534956330E+00  4.9104777266E+00  3.3000000000E-01 0. 9.
</event>
<event>
    20   261  1.000000E+00  1.107796E+03  7.986637E-03  9.166883E-02
      -2   -1    0    0    0  101  0.0000000000E+00  0.0000000000E+00  9.0564549013E+02  9.0564549013E+02  0.0000000000E+00 0. 9.
       2   -1    0    0  102    0  0.0000000000E+00  0.0000000000E+00 -1.5856922473E+03  1.5856922473E+03  0.0000000000E+00 0. 9.
-1000006    2    1    2    0  101 -1.5284425053E+02  6.5828198777E+02 -8.1507902474E+02  1.3753421951E+03  8.7779029200E+02 0. 9.
 1000006    2    1    2  102    0  1.5284425053E+02 -6.5828198777E+02  1.3503226762E+02  1.1159955423E+03  8.7779029200E+02 0. 9.
-1000024    2    3    0    0    0  3.1083583670E+02  4.0517718795E+02 -3.8120289333E+02  6.9172475794E+02  2.6903535800E+02 0. 9.
      -5    1    3    0    0  101 -4.6368008723E+02  2.5310479982E+02 -4.3387613142E+02  6.8361743717E+02  4.8000000000E+00 0. 9.
 1000023    2    4    0    0    0  3.2722086019E+02 -4.1771230498E+01  1.5246990056E+02  4.5207158061E+02  2.6889276000E+02 0. 9.
       6    2    4    0  102    0 -1.7437660965E+02 -6.1651075727E+02 -1.7437632938E+01  6.6392396166E+02  1.7320000000E+02 0. 9.
 1000022    1    5    0    0    0  5.1458712888E+01  1.2904331619E+02 -1.3679794295E+02  2.3376257253E+02  1.2896157000E+02 0. 9.
     -24    2    5    0    0    0  2.5937712381E+02  2.7613387176E+02 -2.4440495038E+02  4.5796218541E+02  8.0431188000E+01 0. 9.
 1000022    1    7    0    0    0  1.9903017513E+02 -4.1555513327E+01  1.1883701187E+02  2.6850175646E+02  1.2896157000E+02 0. 9.
      25    2    7    0    0    0  1.2819068506E+02 -2.1571717103E-01  3.3632888691E+01  1.8356982415E+02  1.2701893900E+02 0. 9.
      24    2    8    0    0    0 -3.6309607055E+01 -1.2488797613E+02  1.0710920708E+00  1.5292389411E+02  8.0431188000E+01 0. 9.
       5    1    8    0  102    0 -1.3806700260E+02 -4.9162278114E+02 -1.8508725009E+01  5.1100006755E+02  4.8000000000E+00 0. 9.
       1    1   10    0  103    0  9.5932338082E+01  1.2590237925E+02 -5.9694123702E+01  1.6916831823E+02  3.3000000000E-01 0. 9.
      -2    1   10    0    0  103  1.6344478573E+02  1.5023149252E+02 -1.8471082667E+02  2.8879386717E+02  3.3000000000E-01 0. 9.
      21    1   12    0  104  105  6.7206125102E+01  4.4947994132E+00  8.1621692640E+01  1.0582517273E+02  0.0000000000E+00 0. 9.
      21    1   12    0  105  104  6.0984559961E+01 -4.7105165842E+00 -4.7988803949E+01  7.7744651421E+01  0.0000000000E+00 0. 9.
      -1    1   13    0    0  106  1.2656344333E+00 -8.9446506754E+01 -2.7892913534E+01  9.3703804226E+01  3.3000000000E-01 0. 9.
       2    1   13    0  106    0 -3.7575241489E+01 -3.5441469380E+01  2.8964005605E+01  5.9220089881E+01  3.3000000000E-01 0. 9.
</event>
<event>
    23   273  1.000000E+00  1.189507E+03  7.993178E-03  9.094489E-02
       2   -1    0    0  101    0  0.0000000000E+00  0.0000000000E+00  1.4295354476E+03  1.4295354476E+03  0.0000000000E+00 0. 9.
       2   -1    0    0  102    0  0.0000000000E+00  0.0000000000E+00 -1.0051711485E+03  1.0051711485E+03  0.0000000000E+00 0. 9.
 2000002    2    1    2  101    0  5.4874332586E+02  3.6183965458E+02  6.1533041716E+01  1.1910111031E+03  9.9129912700E+02 0. 9.
 1000002    2    1    2  102    0 -5.4874332586E+02 -3.6183965458E+02  3.6283125738E+02  1.2436954930E+03  9.9150632100E+02 0. 9.
 1000021    2    3    0  101  103  4.9144999908E+02  3.3917801518E+02  1.7144396095E+02  1.0650087449E+03  8.6503512500E+02 0. 9.
       2    1    3    0  103    0  5.7293326785E+01  2.2661639400E+01 -1.0991091924E+02  1.2600235816E+02  3.3000000000E-01 0. 9.
 1000023    2    4    0    0    0  6.0418138075E+01 -4.4713970866E+02 -8.2704101222E+00  5.2531513069E+02  2.6889276000E+02 0. 9.
       2    1    4    0  102    0 -6.0916146394E+02  8.5300054084E+01  3.7110166750E+02  7.1838036227E+02  3.3000000000E-01 0. 9.
-1000024    2    5    0    0    0  2.8777023662E+02 -1.5870558544E+02  9.2151974151E+01  4.3459312250E+02  2.6903535800E+02 0. 9.
       6    2    5    0  101    0  2.4763331309E+02  3.1918870384E+02  7.7473967237E+01  4.4632291226E+02  1.7320000000E+02 0. 9.
      -5    1    5    0    0  103 -4.3953550624E+01  1.7869489678E+02  1.8180195669E+00  1.8409271018E+02  4.8000000000E+00 0. 9.
 1000022    1    7    0    0    0  4.9419612615E+01 -3.1327620890E+02  6.2828862325E+01  3.4808452085E+02  1.2896157000E+02 0. 9.
      23    2    7    0    0    0  1.0998525460E+01 -1.3386349976E+02 -7.1099272447E+01  1.7723060985E+02  9.1187600000E+01 0. 9.
 1000022    1    9    0    0    0  2.5072442982E+02 -5.4556892619E+01  7.5053561990E+01  2.9682203076E+02  1.2896157000E+02 0. 9.
     -24    2    9    0    0    0  3.7045806793E+01 -1.0414869282E+02  1.7098412161E+01  1.3777109174E+02  8.0431188000E+01 0. 9.
      24    2   10    0    0    0  2.4258534119E+02  2.5300181005E+02  2.3062937479E+01  3.6035904143E+02  8.0431188000E+01 0. 9.
       5    1   10    0  101    0  5.0479718987E+00  6.6186893788E+01  5.4411029758E+01  8.5963870835E+01  4.8000000000E+00 0. 9.
       1    1   13    0  104    0 -1.5113327391E+01 -3.4263630700E+00 -3.6685573118E+01  3.9825780642E+01  3.3000000000E-01 0. 9.
      -1    1   13    0    0  104  2.6111852851E+01 -1.3043713669E+02 -3.4413699329E+01  1.3740482921E+02  3.3000000000E-01 0. 9.
       3    1   15    0  105    0  1.1491608746E+01 -8.5646722685E+00 -2.6115669950E+01  2.9794108471E+01  5.0000000000E-01 0. 9.
      -4    1   15    0    0  105  2.5554198046E+01 -9.5584020553E+01  4.3214082111E+01  1.0797698327E+02  1.5000000000E+00 0. 9.
      -3    1   16    0    0  106  1.7320418191E+02  2.2687290227E+02  1.6264009622E+01  2.8589468415E+02  5.0000000000E-01 0. 9.
       4    1   16    0  106    0  6.9381159282E+01  2.6128907786E+01  6.7989278569E+00  7.4464357282E+01  1.5000000000E+00 0. 9.
</event>
<event>
    12   230  1.000000E+00  3.972101E+02  7.893548E-03  1.035483E-01
      -1   -1    0    0    0  101  0.0000000000E+00  0.0000000000E+00  3.0500612890E+02  3.0500612890E+02  0.0000000000E+00 0. 9.
       2   -1    0    0  101    0  0.0000000000E+00  0.0000000000E+00 -6.1625985070E+02  6.1625985070E+02  0.0000000000E+00 0. 9.
 1000023    2    1    2    0    0  2.6060632894E+02  1.3235748704E+02 -3.4021036208E+02  5.2295369767E+02  2.6889276000E+02 0. 9.
 1000024    2    1    2    0    0 -2.6060632894E+02 -1.3235748704E+02  2.8956640279E+01  3.9831228192E+02  2.6903535800E+02 0. 9.
 1000022    1    3    0    0    0  1.1941226937E+02  6.1224832308E+01 -1.1015761955E+02  2.1627195345E+02  1.2896157000E+02 0. 9.
      25    2    3    0    0    0  1.4119405957E+02  7.1132654736E+01 -2.3005274253E+02  3.0668174422E+02  1.2701893900E+02 0. 9.
 1000022    1    4    0    0    0 -1.3032107470E+02 -2.1808183779E+01  8.2189532786E+01  2.0210241272E+02  1.2896157000E+02 0. 9.
      24    2    4    0    0    0 -1.3028525424E+02 -1.1054930327E+02 -5.3232892508E+01  1.9620986920E+02  8.0431188000E+01 0. 9.
       5    1    6    0  102    0  1.4020578683E+01 -1.7065364005E+01  6.8933472898E+00  2.3629674396E+01  4.8000000000E+00 0. 9.
      -5    1    6    0    0  102  1.2717348089E+02  8.8198018741E+01 -2.3694608982E+02  2.8305206982E+02  4.8000000000E+00 0. 9.
      -3    1    8    0    0  103 -1.4052127917E+02 -9.3100134831E+01 -4.7400084590E+01  1.7510249292E+02  5.0000000000E-01 0. 9.
       4    1    8    0  103    0  1.0236024934E+01 -1.7449168435E+01 -5.8328079181E+00  2.1107376287E+01  1.5000000000E+00 0. 9.
</event>
<event>
    12   230  1.000000E+00  2.920057E+02  7.866044E-03  1.077367E-01
       2   -1    0    0  101    0  0.0000000000E+00  0.0000000000E+00  4.6025431523E+02  4.6025431523E+02  0.0000000000E+00 0. 9.
      -1   -1    0    0    0  101  0.0000000000E+00  0.0000000000E+00 -2.9273177006E+02  2.9273177006E+02  0.0000000000E+00 0. 9.
 1000024    2    1    2    0    0 -1.1369064067E+02  3.4753620916E-01 -1.4434841988E+02  3.2579467880E+02  2.6903535800E+02 0. 9.
 1000023    2    1    2    0    0  1.1369064067E+02 -3.4753620916E-01  3.1187096506E+02  4.2719140649E+02  2.6889276000E+02 0. 9.
 1000022    1    3    0    0    0 -1.0775657476E+02 -2.7833949871E+01 -1.5300374126E+01  1.7103039541E+02  1.2896157000E+02 0. 9.
      24    2    3    0    0    0 -5.9340659104E+00  2.8181486080E+01 -1.2904804576E+02  1.5476428339E+02  8.0431188000E+01 0. 9.
 1000022    1    4    0    0    0  2.9070316104E+01 -1.2666085243E+01  1.0227296528E+02  1.6761968547E+02  1.2896157000E+02 0. 9.
      25    2    4    0    0    0  8.4620324565E+01  1.2318549034E+01  2.0959799977E+02  2.5957172102E+02  1.2701893900E+02 0. 9.
      -3    1    6    0    0  102  3.0039919068E+01 -1.0879005475E+01 -4.1771623483E+01  5.2591520478E+01  5.0000000000E-01 0. 9.
       4    1    6    0  102    0 -3.5973984979E+01  3.9060491556E+01 -8.7276422274E+01  1.0217276291E+02  1.5000000000E+00 0. 9.
       4    1    8    0  103    0  8.3480401819E+01 -5.0502755170E+00  2.2259780874E+02  2.3779511607E+02  1.5000000000E+00 0. 9.
      -4    1    8    0    0  103  1.1399227465E+00  1.7368824551E+01 -1.2999808965E+01  2.1776604953E+01  1.5000000000E+00 0. 9.
</event>
<event>
    24   259  1.000000E+00  9.782637E+02  7.975235E-03  9.296181E-02
       2   -1    0    0  101    0  0.0000000000E+00  0.0000000000E+00  1.4897425099E+03  1.4897425099E+03  0.0000000000E+00 0. 9.
      21   -1    0    0  102  101  0.0000000000E+00  0.0000000000E+00 -1.5315437720E+03  1.5315437720E+03  0.0000000000E+00 0. 9.
 2000002    2    1    2  103    0  2.9522947070E+02 -6.6026826420E+01  1.1302417243E+03  1.5335058842E+03  9.9129912700E+02 0. 9.
 1000021    2    1    2  102  103 -2.9522947070E+02  6.6026826420E+01 -1.1720429865E+03  1.4877803977E+03  8.6503512500E+02 0. 9.
 1000021    2    3    0  103  104  2.8783086580E+02 -3.3242847767E+01  8.3612259052E+02  1.2374726050E+03  8.6503512500E+02 0. 9.
       2    1    3    0  104    0  7.3986048980E+00 -3.2783978653E+01  2.9411913380E+02  2.9603327918E+02  3.3000000000E-01 0. 9.
 1000024    2    4    0    0    0 -5.2760070687E+02  1.0187716846E+02 -7.2010766399E+02  9.3791072866E+02  2.6903535800E+02 0. 9.
      -4    1    4    0    0  103  2.6409265492E+02 -2.3935748506E+01 -3.3017024835E+02  4.2347667390E+02  1.5000000000E+00 0. 9.
       3    1    4    0  102    0 -3.1721418753E+01 -1.1914593536E+01 -1.2176507411E+02  1.2639299514E+02  5.0000000000E-01 0. 9.
 1000024    2    5    0    0    0  1.1246718115E+02 -1.5252416990E+02  5.9355009112E+02  6.7867092450E+02  2.6903535800E+02 0. 9.
      -6    2    5    0    0  104  7.0103760802E+01 -1.3338610683E+02  1.1539088618E+02  2.5694296524E+02  1.7320000000E+02 0. 9.
       5    1    5    0  103    0  1.0525992385E+02  2.5266742897E+02  1.2718161323E+02  3.0185871525E+02  4.8000000000E+00 0. 9.
 1000022    1    7    0    0    0 -2.3448075632E+02  1.1785994093E+02 -4.0793994527E+02  5.0191461051E+02  1.2896157000E+02 0. 9.
      24    2    7    0    0    0 -2.9311995055E+02 -1.5982772469E+01 -3.1216771871E+02  4.3599611814E+02  8.0431188000E+01 0. 9.
 1000022    1   10    0    0    0  1.1856138826E+02 -5.7951701597E+01  2.3248269475E+02  2.9680716366E+02  1.2896157000E+02 0. 9.
      24    2   10    0    0    0 -6.0942071041E+00 -9.4572468301E+01  3.6106739636E+02  3.8186376084E+02  8.0431188000E+01 0. 9.
     -24    2   11    0    0    0 -3.2982904729E+00 -1.3364436344E+02  7.8423624967E+01  1.7461711129E+02  8.0431188000E+01 0. 9.
      -5    1   11    0    0  104  7.3402051275E+01  2.5825660402E-01  3.6967261210E+01  8.2325853953E+01  4.8000000000E+00 0. 9.
      -1    1   14    0    0  105 -8.6165003697E+01 -1.3778662512E+01 -1.4806638324E+02  1.7186629148E+02  3.3000000000E-01 0. 9.
       2    1   14    0  105    0 -2.0695494685E+02 -2.2041099575E+00 -1.6410133548E+02  2.6412982666E+02  3.3000000000E-01 0. 9.
     -13    1   16    0    0    0 -3.4861949753E+01 -1.9543581774E+01  7.8434962006E+01  8.8030458127E+01  1.0566000000E-01 0. 9.
      14    1   16    0    0    0  2.8767742649E+01 -7.5028886527E+01  2.8263243436E+02  2.9383330271E+02  0.0000000000E+00 0. 9.
       1    1   17    0  106    0 -4.0025678353E-01 -7.1395393015E+00 -1.5471462291E+01  1.7047236502E+01  3.3000000000E-01 0. 9.
      -2    1   17    0    0  106 -2.8980336894E+00 -1.2650482414E+02  9.3895087258E+01  1.5756987479E+02  3.3000000000E-01 0. 9.
</event>
<event>
    13   259  1.000000E+00  1.069399E+03  7.983399E-03  9.203196E-02
       2   -1    0    0  101    0  0.0000000000E+00  0.0000000000E+00  1.5584031910E+03  1.5584031910E+03  0.0000000000E+00 0. 9.
      21   -1    0    0  102  101  0.0000000000E+00  0.0000000000E+00 -7.3190628157E+02  7.3190628157E+02  0.0000000000E+00 0. 9.
 2000002    2    1    2  103    0  3.4286399573E+02  4.0072143076E+02  4.3606208794E+02  1.2045569677E+03  9.9129912700E+02 0. 9.
 1000021    2    1    2  102  103 -3.4286399573E+02 -4.0072143076E+02  3.9043482154E+02  1.0857525049E+03  8.6503512500E+02 0. 9.
 1000022    1    3    0    0    0  5.1365617447E+02  6.4789190999E+01 -1.0638617118E+02  5.4404908676E+02  1.2896157000E+02 0. 9.
       2    1    3    0  103    0 -1.7079217875E+02  3.3593223977E+02  5.4244825912E+02  6.6050788092E+02  3.3000000000E-01 0. 9.
-1000024    2    4    0    0    0 -2.0458830545E+02 -1.3631179214E+02  4.8643337817E+02  6.0781143018E+02  2.6903535800E+02 0. 9.
       4    1    4    0  102    0 -1.2075299124E+02 -2.9781131956E+01  1.0937742309E+02  1.6563173426E+02  1.5000000000E+00 0. 9.
      -3    1    4    0    0  103 -1.7522699038E+01 -2.3462850666E+02 -2.0537597972E+02  3.1230934050E+02  5.0000000000E-01 0. 9.
 1000022    1    7    0    0    0 -2.1854803609E+02 -8.4383728534E+01  3.4673396664E+02  4.3788056349E+02  1.2896157000E+02 0. 9.
     -24    2    7    0    0    0  1.3959730640E+01 -5.1928063611E+01  1.3969941154E+02  1.6993086670E+02  8.0431188000E+01 0. 9.
       3    1   11    0  104    0 -3.1741500695E+01 -7.4717251833E+00  4.0480381031E+01  5.1983274156E+01  5.0000000000E-01 0. 9.
      -4    1   11    0    0  104  4.5701231335E+01 -4.4456338428E+01  9.9219030506E+01  1.1794759254E+02  1.5000000000E+00 0. 9.
</event>
<event>
    13   259  1.000000E+00  9.378136E+02  7.971370E-03  9.340924E-02
      21   -1    0    0  101  102  0.0000000000E+00  0.0000000000E+00  6.8783079164E+02  6.8783079164E+02  0.0000000000E+00 0. 9.
       2   -1    0    0  102    0  0.0000000000E+00  0.0000000000E+00 -1.3074681577E+03  1.3074681577E+03  0.0000000000E+00 0. 9.
 1000021    2    1    2  101  103 -1.1747629792E+02  1.4619251717E+01 -1.2787923541E+02  8.8241332120E+02  8.6503512500E+02 0. 9.
 2000002    2    1    2  103    0  1.1747629792E+02 -1.4619251717E+01 -4.9175813068E+02  1.1128856282E+03  9.9129912700E+02 0. 9.
 1000024    2    3    0    0    0  1.1242817089E+02  2.9524523621E+01  1.6067884703E+01  2.9351318859E+02  2.6903535800E+02 0. 9.
      -4    1    3    0    0  103 -3.1707229923E+02  1.1551160068E+02 -2.3151970487E+02  4.0924491026E+02  1.5000000000E+00 0. 9.
       3    1    3    0  101    0  8.7167830422E+01 -1.3041687258E+02  8.7572584761E+01  1.7965522235E+02  5.0000000000E-01 0. 9.
 1000022    1    4    0    0    0 -1.1340100597E+02 -1.8475126589E+01  2.6798723430E+02  3.1882497196E+02  1.2896157000E+02 0. 9.
       2    1    4    0  103    0  2.3087730388E+02  3.8558748721E+00 -7.5974536498E+02  7.9406065621E+02  3.3000000000E-01 0. 9.
 1000022    1    5    0    0    0  1.3050438150E+02  4.9028990478E+01  5.8566941753E+01  1.9873703405E+02  1.2896157000E+02 0. 9.
      24    2    5    0    0    0 -1.8076210611E+01 -1.9504466857E+01 -4.2499057050E+01  9.4776154547E+01  8.0431188000E+01 0. 9.
     -13    1   11    0    0    0  1.2514578748E+01  2.2975849420E+01  1.7639136518E+00  2.6222640851E+01  1.0566000000E-01 0. 9.
      14    1   11    0    0    0 -3.0590789359E+01 -4.2480316277E+01 -4.4262970702E+01  6.8553513695E+01  0.0000000000E+00 0. 9.
</event>
<event>
    24   258  1.000000E+00  9.879586E+02  7.976138E-03  9.285794E-02
      21   -1    0    0  101  102  0.0000000000E+00  0.0000000000E+00  4.7666994953E+02  4.7666994953E+02  0.0000000000E+00 0. 9.
       2   -1    0    0  102    0  0.0000000000E+00  0.0000000000E+00 -2.1562897618E+03  2.1562897618E+03  0.0000000000E+00 0. 9.
 1000021    2    1    2  101  103  2.2605703946E+02 -2.4346485961E+02 -4.8696030956E+02  1.0468013343E+03  8.6503512500E+02 0. 9.
 1000002    2    1    2  103    0 -2.2605703946E+02  2.4346485961E+02 -1.1926595027E+03  1.5861583770E+03  9.9150632100E+02 0. 9.
-1000024    2    3    0    0    0  1.6309426810E+02  1.8973411298E+02 -8.3464394589E+01  3.7675602574E+02  2.6903535800E+02 0. 9.
       6    2    3    0  101    0  6.2236607692E+01 -1.2448215118E+02 -1.2904492636E+02  2.5694364036E+02  1.7320000000E+02 0. 9.
      -5    1    3    0    0  103  7.2616366959E-01 -3.0871682141E+02 -2.7445098861E+02  4.1310166821E+02  4.8000000000E+00 0. 9.
 1000021    2    4    0  103  104 -1.3813673959E+02  2.9629723987E+02 -9.6552162725E+02  1.3369336533E+03  8.6503512500E+02 0. 9.
       2    1    4    0  104    0 -8.7920299870E+01 -5.2832380257E+01 -2.2713787546E+02  2.4922472370E+02  3.3000000000E-01 0. 9.
 1000022    1    5    0    0    0  4.7228701368E+01  3.0838163835E+01 -8.4718761541E+01  1.6428602398E+02  1.2896157000E+02 0. 9.
     -24    2    5    0    0    0  1.1586556673E+02  1.5889594915E+02  1.2543669522E+00  2.1247000176E+02  8.0431188000E+01 0. 9.
      24    2    6    0    0    0  4.8444454785E+01 -1.1064502516E+02 -1.6252608559E+02  2.1788320562E+02  8.0431188000E+01 0. 9.
       5    1    6    0  101    0  1.3792152907E+01 -1.3837126025E+01  3.3481159229E+01  3.9060434736E+01  4.8000000000E+00 0. 9.
-1000024    2    8    0    0    0  1.1247865304E+02 -1.2130923815E+02 -1.6138875343E+02  3.5467412119E+02  2.6903535800E+02 0. 9.
       4    1    8    0  103    0 -1.8245873427E+02  2.6518200365E+02 -7.3338998127E+02  8.0092184350E+02  1.5000000000E+00 0. 9.
      -3    1    8    0    0  104 -6.8156658368E+01  1.5242447437E+02 -7.0742892541E+01  1.8133768861E+02  5.0000000000E-01 0. 9.
       3    1   11    0  105    0  4.9186372399E+01  7.6409811261E+01 -3.9163923387E+01  9.8953632484E+01  5.0000000000E-01 0. 9.
      -4    1   11    0    0  105  6.6679194334E+01  8.2486137886E+01  4.0418290339E+01  1.1351636928E+02  1.5000000000E+00 0. 9.
     -13    1   12    0    0    0 -1.4432595280E+00  3.1077746407E+00  6.9577418301E+00  7.7564551628E+00  1.0566000000E-01 0. 9.
      14    1   12    0    0    0  4.9887714313E+01 -1.1375279980E+02 -1.6948382742E+02  2.1012675046E+02  0.0000000000E+00 0. 9.
 1000022    1   14    0    0    0  1.3364031385E+02 -3.7630297362E+01 -1.3795595449E+02  2.3439006950E+02  1.2896157000E+02 0. 9.
     -24    2   14    0    0    0 -2.1161660809E+01 -8.3678940793E+01 -2.3432798944E+01  1.2028405169E+02  8.0431188000E+01 0. 9.
      11    1   22    0    0    0  2.4535322386E+01 -5.3060604312E+00 -1.4827526049E+01  2.9154619717E+01  5.1000000000E-04 0. 9.
     -12    1   22    0    0    0 -4.5696983194E+01 -7.8372880361E+01 -8.6052728959E+00  9.1129431968E+01  0.0000000000E+00 0. 9.
</event>
<event>
    15   272  1.000000E+00  1.007625E+03  7.977943E-03  9.265102E-02
       2   -1    0    0  101    0  0.0000000000E+00  0.0000000000E+00  1.1245457042E+03  1.1245457042E+03  0.0000000000E+00 0. 9.
       2   -1    0    0  102    0  0.0000000000E+00  0.0000000000E+00 -1.3846349903E+03  1.3846349903E+03  0.0000000000E+00 0. 9.
 2000002    2    1    2  101    0 -7.1084328704E+01 -1.6607738193E+02 -8.7008583495E+02  1.3312993645E+03  9.9129912700E+02 0. 9.
 2000002    2    1    2  102    0  7.1084328704E+01  1.6607738193E+02  6.0999654889E+02  1.1778813299E+03  9.9129912700E+02 0. 9.
 1000022    1    3    0    0    0 -2.8434642753E+02 -3.8982960473E+02 -8.9105465461E+02  1.0214839674E+03  1.2896157000E+02 0. 9.
       2    1    3    0  101    0  2.1326209882E+02  2.2375222280E+02  2.0968819659E+01  3.0981539713E+02  3.3000000000E-01 0. 9.
 1000021    2    4    0  102  103  1.3839505982E+02  2.3927411132E+02  5.4597033091E+02  1.0596106184E+03  8.6503512500E+02 0. 9.
       2    1    4    0  103    0 -6.7310731113E+01 -7.3196729395E+01  6.4026217981E+01  1.1827071153E+02  3.3000000000E-01 0. 9.
-1000024    2    7    0    0    0 -3.9420364400E+01 -1.1844833923E+02  3.8563749572E+02  4.8649797138E+02  2.6903535800E+02 0. 9.
       2    1    7    0  102    0  2.4997081272E+02  1.2561364291E+02  1.7435583236E+02  3.2964262418E+02  3.3000000000E-01 0. 9.
      -1    1    7    0    0  103 -7.2155388506E+01  2.3210880765E+02 -1.4022997170E+01  2.4347002285E+02  3.3000000000E-01 0. 9.
 1000022    1    9    0    0    0 -8.3004051005E+01 -9.4587130457E+00  2.1611878097E+02  2.6517457224E+02  1.2896157000E+02 0. 9.
     -24    2    9    0    0    0  4.3583686605E+01 -1.0898962619E+02  1.6951871475E+02  2.2132339914E+02  8.0431188000E+01 0. 9.
      15    1   13    0    0    0  3.2972646229E+01 -2.5257476410E+01  1.1124401800E+02  1.1875826196E+02  1.7770000000E+00 0. 9.
     -16    1   13    0    0    0  1.0611040376E+01 -8.3732149778E+01  5.8274696752E+01  1.0256513719E+02  0.0000000000E+00 0. 9.
</event>
<event>
    12   230  1.000000E+00  3.409641E+02  7.879876E-03  1.055852E-01
      -1   -1    0    0    0  101  0.0000000000E+00  0.0000000000E+00  3.4096150211E+02  3.4096150211E+02  0.0000000000E+00 0. 9.
       2   -1    0    0  101    0  0.0000000000E+00  0.0000000000E+00 -4.0894571298E+02  4.0894571298E+02  0.0000000000E+00 0. 9.
 1000023    2    1    2    0    0 -2.0891791705E+02  1.6375525352E+01 -1.8686089357E+02  3.8876106263E+02  2.6889276000E+02 0. 9.
 1000024    2    1    2    0    0  2.0891791705E+02 -1.6375525352E+01  1.1887668269E+02  3.6114615246E+02  2.6903535800E+02 0. 9.
 1000022    1    3    0    0    0 -8.1460980425E+01 -1.5401899281E+01 -1.1810291456E+02  1.9352647053E+02  1.2896157000E+02 0. 9.
      25    2    3    0    0    0 -1.2745693662E+02  3.1777424633E+01 -6.8757979005E+01  1.9523459210E+02  1.2701893900E+02 0. 9.
 1000022    1    4    0    0    0  6.1168704806E+01  5.5789394262E+00  1.2723344594E+02  1.9129080301E+02  1.2896157000E+02 0. 9.
      24    2    4    0    0    0  1.4774921224E+02 -2.1954464779E+01 -8.3567632513E+00  1.6985534945E+02  8.0431188000E+01 0. 9.
      21    1    6    0  102  103 -4.0025819092E+01  2.0294718188E+01  3.6552744677E+01  5.7879572594E+01  0.0000000000E+00 0. 9.
      21    1    6    0  103  102 -8.7431117531E+01  1.1482706445E+01 -1.0531072368E+02  1.3735501950E+02  0.0000000000E+00 0. 9.
      -3    1    8    0    0  104  1.1195284414E+02 -4.7233256768E+01 -2.2918862811E+01  1.2365251364E+02  5.0000000000E-01 0. 9.
       4    1    8    0  104    0  3.5796368100E+01  2.5278791989E+01  1.4562099559E+01  4.6202835813E+01  1.5000000000E+00 0. 9.
</event>
<event>
     8   272  1.000000E+00  1.098424E+03  7.985857E-03  9.175603E-02
       2   -1    0    0  101    0  0.0000000000E+00  0.0000000000E+00  1.4911104899E+03  1.4911104899E+03  0.0000000000E+00 0. 9.
       1   -1    0    0  102    0  0.0000000000E+00  0.0000000000E+00 -9.3901472514E+02  9.3901472514E+02  0.0000000000E+00 0. 9.
 2000002    2    1    2  102    0  3.8185835968E+00 -4.7269731318E+02 -1.7585362997E+02  1.1122300975E+03  9.9129912700E+02 0. 9.
 2000001    2    1    2  101    0 -3.8185835968E+00  4.7269731318E+02  7.2794939469E+02  1.3178951175E+03  9.9170554500E+02 0. 9.
 1000022    1    3    0    0    0 -2.1848268377E+02 -2.9397894466E+02  3.4432036626E+02  5.1898545661E+02  1.2896157000E+02 0. 9.
       2    1    3    0  102    0  2.2230126737E+02 -1.7871836852E+02 -5.2017399623E+02  5.9324464091E+02  3.3000000000E-01 0. 9.
 1000022    1    4    0    0    0  1.1967599866E+02  5.8368891260E+02  8.9464965999E+02  1.0826098984E+03  1.2896157000E+02 0. 9.
       1    1    4    0  101    0 -1.2349458225E+02 -1.1099159942E+02 -1.6670026530E+02  2.3528521913E+02  3.3000000000E-01 0. 9.
</event>
<event>
    12   230  1.000000E+00  3.607351E+02  7.884918E-03  1.048240E-01
      -1   -1    0    0    0  101  0.0000000000E+00  0.0000000000E+00  7.0488830972E+02  7.0488830972E+02  0.0000000000E+00 0. 9.
       2   -1    0    0  101    0  0.0000000000E+00  0.0000000000E+00 -2.8326967092E+02  2.8326967092E+02  0.0000000000E+00 0. 9.
 1000023    2    1    2    0    0  1.0305696981E+02  2.1718061856E+02 -8.0795765163E+01  3.6962065980E+02  2.6889276000E+02 0. 9.
 1000024    2    1    2    0    0 -1.0305696981E+02 -2.1718061856E+02  5.0241440396E+02  6.1853732084E+02  2.6903535800E+02 0. 9.
 1000022    1    3    0    0    0  7.1123731289E+01  1.1526233330E+02 -4.7604329769E+00  1.8707682617E+02  1.2896157000E+02 0. 9.
      25    2    3    0    0    0  3.1933238521E+01  1.0191828526E+02 -7.6035332186E+01  1.8254383364E+02  1.2701893900E+02 0. 9.
 1000022    1    4    0    0    0 -5.4539192385E+00 -1.1674006355E+02  3.7290846042E+02  4.1152131665E+02  1.2896157000E+02 0. 9.
      24    2    4    0    0    0 -9.7603050571E+01 -1.0044055501E+02  1.2950594355E+02  2.0701600419E+02  8.0431188000E+01 0. 9.
       5    1    6    0  102    0  1.8817259947E+01 -1.8312263811E+01 -5.2986327960E+01  5.9329749944E+01  4.8000000000E+00 0. 9.
      -5    1    6    0    0  102  1.3115978575E+01  1.2023054907E+02 -2.3049004226E+01  1.2321408369E+02  4.8000000000E+00 0. 9.
      -3    1    8    0    0  103 -3.1403151192E-01  9.7381997061E+00  2.4496798852E+01  2.6368054598E+01  5.0000000000E-01 0. 9.
       4    1    8    0  103    0 -9.7289019059E+01 -1.1017875471E+02  1.0500914470E+02  1.8064794959E+02  1.5000000000E+00 0. 9.
</event>
<event>
    12   230  1.000000E+00  2.703489E+02  7.859186E-03  1.088392E-01
       1   -1    0    0  101    0  0.0000000000E+00  0.0000000000E+00  1.0223143216E+03  1.0223143216E+03  0.0000000000E+00 0. 9.
      -2   -1    0    0    0  101  0.0000000000E+00  0.0000000000E+00 -7.1662389891E+01  7.1662389891E+01  0.0000000000E+00 0. 9.
 1000023    2    1    2    0    0 -2.7144601578E+01 -3.1691548246E+00  5.0177817041E+02  5.6993992808E+02  2.6889276000E+02 0. 9.
-1000024    2    1    2    0    0  2.7144601578E+01  3.1691548246E+00  4.4887376133E+02  5.2403678344E+02  2.6903535800E+02 0. 9.
 1000022    1    3    0    0    0  2.4388531303E+01  6.5889850935E+00  2.1593377973E+02  2.5277796373E+02  1.2896157000E+02 0. 9.
      25    2    3    0    0    0 -5.1533132881E+01 -9.7581399181E+00  2.8584439068E+02  3.1716196434E+02  1.2701893900E+02 0. 9.
 1000022    1    4    0    0    0 -5.4813532714E+01  3.9343162758E+01  1.9767630332E+02  2.4547793232E+02  1.2896157000E+02 0. 9.
     -24    2    4    0    0    0  8.1958134292E+01 -3.6174007933E+01  2.5119745800E+02  2.7855885112E+02  8.0431188000E+01 0. 9.
       5    1    6    0  102    0 -4.0716748174E+00 -6.4092502340E+01  1.5089569629E+02  1.6406394653E+02  4.8000000000E+00 0. 9.
      -5    1    6    0    0  102 -4.7461458064E+01  5.4334362422E+01  1.3494869439E+02  1.5309801782E+02  4.8000000000E+00 0. 9.
       1    1    8    0  103    0  3.0922761497E+01 -1.2264973670E+01  1.6397305229E+01  3.7089449666E+01  3.3000000000E-01 0. 9.
      -2    1    8    0    0  103  5.1035372795E+01 -2.3909034263E+01  2.3480015277E+02  2.4146940145E+02  3.3000000000E-01 0. 9.
</event>
<event>
    24   259  1.000000E+00  1.054410E+03  7.982104E-03  9.217807E-02
       3   -1    0    0  101    0  0.0000000000E+00  0.0000000000E+00  9.0643477241E+02  9.0643477241E+02  0.0000000000E+00 0. 9.
      21   -1    0    0  102  101  0.0000000000E+00  0.0000000000E+00 -1.2632787656E+03  1.2632787656E+03  0.0000000000E+00 0. 9.
 2000003    2    1    2  103    0  4.8305356916E+02  1.1206028993E+02  5.6198287066E+00  1.1087875043E+03  9.9170554500E+02 0. 9.
 1000021    2    1    2  102  103 -4.8305356916E+02 -1.1206028993E+02 -3.6246382186E+02  1.0609260337E+03  8.6503512500E+02 0. 9.
 1000021    2    3    0  103  104  3.6058106625E+02  5.4501231755E+01  9.9597929178E+01  9.4403104005E+02  8.6503512500E+02 0. 9.
       3    1    3    0  104    0  1.2247250291E+02  5.7559058170E+01 -9.3978100472E+01  1.6475646426E+02  5.0000000000E-01 0. 9.
-1000024    2    4    0    0    0 -1.9440124340E+02  6.8055626462E+01 -1.8472345842E+02  3.8590956411E+02  2.6903535800E+02 0. 9.
       6    2    4    0  102    0 -1.6715341836E+02  4.4800396869E+00 -3.2863321542E+02  4.0737987960E+02  1.7320000000E+02 0. 9.
      -5    1    4    0    0  103 -1.2149890740E+02 -1.8459595607E+02  1.5089285199E+02  2.6763658995E+02  4.8000000000E+00 0. 9.
-1000024    2    5    0    0    0  2.7035327589E+02 -1.2598249546E+02  2.5767333289E+02  4.7721908311E+02  2.6903535800E+02 0. 9.
       2    1    5    0  103    0  1.3878158968E+02  3.4688480377E+01 -2.4979256073E+02  2.8785422109E+02  3.3000000000E-01 0. 9.
      -1    1    5    0    0  104 -4.8553799317E+01  1.4579524684E+02  9.1717157022E+01  1.7895773585E+02  3.3000000000E-01 0. 9.
 1000022    1    7    0    0    0 -1.8748499274E+02  4.8981045172E+01 -1.9323417522E+02  3.0252321944E+02  1.2896157000E+02 0. 9.
     -24    2    7    0    0    0 -6.9162506548E+00  1.9074581290E+01  8.5107167969E+00  8.3386344673E+01  8.0431188000E+01 0. 9.
      24    2    8    0    0    0 -9.8639591850E+01 -3.7072949325E+01 -2.8878946881E+02  3.1776202723E+02  8.0431188000E+01 0. 9.
       5    1    8    0  102    0 -6.8513826513E+01  4.1552989012E+01 -3.9843746611E+01  8.9617852369E+01  4.8000000000E+00 0. 9.
 1000022    1   10    0    0    0  1.9321004240E+02 -1.6167343687E+02  2.0144365338E+02  3.4738890699E+02  1.2896157000E+02 0. 9.
     -24    2   10    0    0    0  7.7143233487E+01  3.5690941404E+01  5.6229679505E+01  1.2983017612E+02  8.0431188000E+01 0. 9.
      15    1   14    0    0    0 -4.1376132735E+01 -1.7607712689E+00  1.1468170625E+01  4.3008851903E+01  1.7770000000E+00 0. 9.
     -16    1   14    0    0    0  3.4459882080E+01  2.0835352559E+01 -2.9574538277E+00  4.0377492770E+01  0.0000000000E+00 0. 9.
     -13    1   15    0    0    0 -3.8817699068E+01  6.7635997491E+00 -3.2869471634E+01  5.1312506975E+01  1.0566000000E-01 0. 9.
      14    1   15    0    0    0 -5.9821892782E+01 -4.3836549075E+01 -2.5591999717E+02  2.6644952026E+02  0.0000000000E+00 0. 9.
       1    1   18    0  105    0  8.2590973116E+00  4.2723692270E+01  5.2222906016E+00  4.3828162050E+01  3.3000000000E-01 0. 9.
      -2    1   18    0    0  105  6.8884136176E+01 -7.0327508659E+00  5.1007388904E+01  8.6002014071E+01  3.3000000000E-01 0. 9.
</event>
<event>
    12   226  1.000000E+00  5.430819E+02  7.921707E-03  9.961151E-02
       2   -1    0    0  101    0  0.0000000000E+00  0.0000000000E+00  1.7129588188E+03  1.7129588188E+03  0.0000000000E+00 0. 9.
      -2   -1    0    0    0  101  0.0000000000E+00  0.0000000000E+00 -1.7304586939E+02  1.7304586939E+02  0.0000000000E+00 0. 9.
 1000024    2    1    2    0    0 -7.5654368925E+01 -4.6565469238E+02  8.3664683891E+02  9.9745467716E+02  2.6903535800E+02 0. 9.
-1000024    2    1    2    0    0  7.5654368925E+01  4.6565469238E+02  7.0326611048E+02  8.8855001101E+02  2.6903535800E+02 0. 9.
 1000022    1    3    0    0    0 -7.4501512270E+01 -1.4367148472E+02  2.6212859972E+02  3.3396775321E+02  1.2896157000E+02 0. 9.
      24    2    3    0    0    0 -1.1528566550E+00 -3.2198320766E+02  5.7451823919E+02  6.6348692395E+02  8.0431188000E+01 0. 9.
 1000022    1    4    0    0    0  7.7665958434E+01  2.6476369746E+02  5.3020284687E+02  6.1145560915E+02  1.2896157000E+02 0. 9.
     -24    2    4    0    0    0 -2.0115895088E+00  2.0089099492E+02  1.7306326360E+02  2.7709440186E+02  8.0431188000E+01 0. 9.
      -3    1    6    0    0  102 -2.9326051719E+01 -2.3586036748E+02  3.6962942790E+02  4.3944999059E+02  5.0000000000E-01 0. 9.
       4    1    6    0  102    0  2.8173195064E+01 -8.6122840179E+01  2.0488881129E+02  2.2403693337E+02  1.5000000000E+00 0. 9.
       1    1    8    0  103    0  2.6290678911E+01  5.2155191185E+01  1.9838992652E+01  6.1685154572E+01  3.3000000000E-01 0. 9.
      -2    1    8    0    0  103 -2.8302268420E+01  1.4873580373E+02  1.5322427095E+02  2.1540924729E+02  3.3000000000E-01 0. 9.
</event>
<event>
    20   259  1.000000E+00  9.536017E+02  7.972897E-03  9.323184E-02
       2   -1    0    0  101    0  0.0000000000E+00  0.0000000000E+00  4.3479796253E+02  4.3479796253E+02  0.0000000000E+00 0. 9.
      21   -1    0    0  102  101  0.0000000000E+00  0.0000000000E+00 -2.0828557116E+03  2.0828557116E+03  0.0000000000E+00 0. 9.
 2000002    2    1    2  103    0 -1.4705591006E+02 -1.4916758756E+02 -8.8729763568E+02  1.3467915441E+03  9.9129912700E+02 0. 9.
 1000021    2    1    2  102  103  1.4705591006E+02  1.4916758756E+02 -7.6076011341E+02  1.1708621300E+03  8.6503512500E+02 0. 9.
 1000021    2    3    0  103  104 -2.2788094635E+02 -1.7732279624E+02 -7.3169634525E+02  1.1692041776E+03  8.6503512500E+02 0. 9.
       2    1    3    0  104    0  8.0825036291E+01  2.8155208684E+01 -1.5560129043E+02  1.7758736653E+02  3.3000000000E-01 0. 9.
-1000024    2    4    0    0    0  3.8339994932E+02  1.9322166392E+02 -5.1390582035E+02  7.2167121918E+02  2.6903535800E+02 0. 9.
       2    1    4    0  102    0 -8.2423084100E+01  1.1225199748E+02 -1.6287550792E+02  2.1429562690E+02  3.3000000000E-01 0. 9.
      -1    1    4    0    0  103 -1.5392095516E+02 -1.5630607384E+02 -8.3978785141E+01  2.3489528393E+02  3.3000000000E-01 0. 9.
 1000023    2    5    0    0    0  2.7394005245E+01 -2.9402137682E+02 -2.7935640177E+02  4.8738313178E+02  2.6889276000E+02 0. 9.
       1    1    5    0  103    0 -4.7362090246E+01 -1.5731611958E+02 -1.7438934035E+02  2.3958981615E+02  3.3000000000E-01 0. 9.
      -1    1    5    0    0  104 -2.0791286135E+02  2.7401470016E+02 -2.7795060313E+02  4.4223122967E+02  3.3000000000E-01 0. 9.
 1000022    1    7    0    0    0  3.1269341958E+02  9.7357755801E+01 -4.2832730880E+02  5.5439252995E+02  1.2896157000E+02 0. 9.
     -24    2    7    0    0    0  7.0706529740E+01  9.5863908124E+01 -8.5578511555E+01  1.6727868923E+02  8.0431188000E+01 0. 9.
 1000022    1   10    0    0    0  4.3149733809E+01 -1.8661648284E+02 -1.8192145902E+02  2.9396277822E+02  1.2896157000E+02 0. 9.
      25    2   10    0    0    0 -1.5755728565E+01 -1.0740489399E+02 -9.7434942751E+01  1.9342035355E+02  1.2701893900E+02 0. 9.
       1    1   14    0  105    0 -5.5700483278E+00 -1.0500590009E+01 -2.2282086899E+00  1.2098001607E+01  3.3000000000E-01 0. 9.
      -4    1   14    0    0  105  7.6276578068E+01  1.0636449813E+02 -8.3350302865E+01  1.5518068763E+02  1.5000000000E+00 0. 9.
       5    1   16    0  106    0 -6.4276147524E+01 -8.0840933448E+01 -9.0612956067E+01  1.3747882553E+02  4.8000000000E+00 0. 9.
      -5    1   16    0    0  106  4.8520418959E+01 -2.6563960541E+01 -6.8219866835E+00  5.5941528026E+01  4.8000000000E+00 0. 9.
</event>
<event>
    15   241  1.000000E+00  8.686658E+02  7.964369E-03  9.423187E-02
       2   -1    0    0  101    0  0.0000000000E+00  0.0000000000E+00  1.1481902796E+03  1.1481902796E+03  0.0000000000E+00 0. 9.
      -3   -1    0    0    0  102  0.0000000000E+00  0.0000000000E+00 -6.3528932002E+02  6.3528932002E+02  0.0000000000E+00 0. 9.
 1000024    2    1    2    0    0 -2.3399101128E+02 -5.3804791442E+02  7.3515612629E+01  6.4963983924E+02  2.6903535800E+02 0. 9.
 1000021    2    1    2  101  102  2.3399101128E+02  5.3804791442E+02  4.3938534692E+02  1.1338397603E+03  8.6503512500E+02 0. 9.
 1000022    1    3    0    0    0 -2.1524339907E+02 -2.9087051315E+02  5.8771041758E+01  3.8861355888E+02  1.2896157000E+02 0. 9.
      24    2    3    0    0    0 -1.8747612214E+01 -2.4717740127E+02  1.4744570870E+01  2.6102628036E+02  8.0431188000E+01 0. 9.
 1000024    2    4    0    0    0 -7.6699231124E+00  3.6578215170E+02  4.5464331737E+02  6.4260094935E+02  2.6903535800E+02 0. 9.
      -4    1    4    0    0  102 -7.4790664646E+01 -2.6636467812E+01 -7.9070873377E+01  1.1206068870E+02  1.5000000000E+00 0. 9.
       3    1    4    0  101    0  3.1645159904E+02  1.9890223053E+02  6.3812902926E+01  3.7917812229E+02  5.0000000000E-01 0. 9.
     -11    1    6    0    0    0  7.2688697049E+00 -9.1088282194E+01 -3.0684090437E+01  9.6392038188E+01  5.1000000000E-04 0. 9.
      12    1    6    0    0    0 -2.6016481919E+01 -1.5608911908E+02  4.5428661308E+01  1.6463424217E+02  0.0000000000E+00 0. 9.
 1000022    1    7    0    0    0 -2.4159941879E+01  2.8479353892E+02  2.2600542876E+02  3.8652374179E+02  1.2896157000E+02 0. 9.
      24    2    7    0    0    0  1.6490018766E+01  8.0988612776E+01  2.2863788861E+02  2.5607720756E+02  8.0431188000E+01 0. 9.
      -1    1   13    0    0  103  1.9513444558E+01 -1.1553667022E+01  4.8187179562E+01  5.3257627758E+01  3.3000000000E-01 0. 9.
       2    1   13    0  103    0 -3.0234257923E+00  9.2542279797E+01  1.8045070905E+02  2.0281957980E+02  3.3000000000E-01 0. 9.
</event>
<event>
    12   230  1.000000E+00  2.762316E+02  7.861101E-03  1.085290E-01
      -1   -1    0    0    0  101  0.0000000000E+00  0.0000000000E+00  1.1615226099E+02  1.1615226099E+02  0.0000000000E+00 0. 9.
       2   -1    0    0  101    0  0.0000000000E+00  0.0000000000E+00 -6.6696945074E+02  6.6696945074E+02  0.0000000000E+00 0. 9.
 1000023    2    1    2    0    0 -5.9977446280E+01  1.9103226747E+01 -3.2338047916E+02  4.2525342799E+02  2.6889276000E+02 0. 9.
 1000024    2    1    2    0    0  5.9977446280E+01 -1.9103226747E+01 -2.2743671059E+02  3.5786828375E+02  2.6903535800E+02 0. 9.
 1000022    1    3    0    0    0  6.2530898495E+00  1.1804944573E+01 -1.2210434260E+02  1.7809832921E+02  1.2896157000E+02 0. 9.
      25    2    3    0    0    0 -6.6230536129E+01  7.2982821744E+00 -2.0127613656E+02  2.4715509878E+02  1.2701893900E+02 0. 9.
 1000022    1    4    0    0    0  1.2233023440E+01 -8.2115255268E+01 -8.2286772119E+01  1.7405390376E+02  1.2896157000E+02 0. 9.
      24    2    4    0    0    0  4.7744422840E+01  6.3012028520E+01 -1.4514993847E+02  1.8381437999E+02  8.0431188000E+01 0. 9.
       5    1    6    0  102    0  1.0786576492E+01 -3.5691959692E+01 -1.2472200924E+02  1.3026467598E+02  4.8000000000E+00 0. 9.
      -5    1    6    0    0  102 -7.7017112621E+01  4.2990241867E+01 -7.6554127320E+01  1.1689042280E+02  4.8000000000E+00 0. 9.
     -15    1    8    0    0    0  1.6854250799E+01 -1.2595449793E+01 -5.1539877164E+00  2.1735511125E+01  1.7770000000E+00 0. 9.
      16    1    8    0    0    0  3.0890172041E+01  7.5607478313E+01 -1.3999595075E+02  1.6207886887E+02  0.0000000000E+00 0. 9.
</event>
<event>
    12   226  1.000000E+00  2.915082E+02  7.865892E-03  1.077608E-01
      -2   -1    0    0    0  101  0.0000000000E+00  0.0000000000E+00  1.1593369690E+02  1.1593369690E+02  0.0000000000E+00 0. 9.
       2   -1    0    0  101    0  0.0000000000E+00  0.0000000000E+00 -9.1130744431E+02  9.1130744431E+02  0.0000000000E+00 0. 9.
-1000024    2    1    2    0    0  8.8145238369E+01 -6.9479697292E+01 -1.7048101541E+02  3.3769929205E+02  2.6903535800E+02 0. 9.
 1000024    2    1    2    0    0 -8.8145238369E+01  6.9479697292E+01 -6.2489273200E+02  6.8954184916E+02  2.6903535800E+02 0. 9.
 1000022    1    3    0    0    0  7.4787667203E+01 -1.1357706657E+02 -6.7633740173E+01  1.9924445930E+02  1.2896157000E+02 0. 9.
     -24    2    3    0    0    0  1.3357571166E+01  4.4097369279E+01 -1.0284727523E+02  1.3845483275E+02  8.0431188000E+01 0. 9.
 1000022    1    4    0    0    0 -2.8139174428E+01  6.4027857025E+00 -1.4922325533E+02  1.9932755773E+02  1.2896157000E+02 0. 9.
      24    2    4    0    0    0 -6.0006063941E+01  6.3076911590E+01 -4.7566947667E+02  4.9021429143E+02  8.0431188000E+01 0. 9.
      11    1    6    0    0    0 -8.4281709541E+00 -1.7336135763E+01 -5.3002013421E+01  5.6398484871E+01  5.1000000000E-04 0. 9.
     -12    1    6    0    0    0  2.1785742120E+01  6.1433505042E+01 -4.9845261814E+01  8.2056347876E+01  0.0000000000E+00 0. 9.
      -3    1    8    0    0  102 -5.3523939544E+01 -1.1528319418E+00 -1.9537396864E+02  2.0257684652E+02  5.0000000000E-01 0. 9.
       4    1    8    0  102    0 -6.4821243967E+00  6.4229743531E+01 -2.8029550803E+02  2.8763744490E+02  1.5000000000E+00 0. 9.
</event>
<event>
    12   230  1.000000E+00  3.508505E+02  7.882432E-03  1.051978E-01
      -1   -1    0    0    0  101  0.0000000000E+00  0.0000000000E+00  2.6043601787E+02  2.6043601787E+02  0.0000000000E+00 0. 9.
       2   -1    0    0  101    0  0.0000000000E+00  0.0000000000E+00 -8.8440225637E+02  8.8440225637E+02  0.0000000000E+00 0. 9.
 1000023    2    1    2    0    0  9.8676113693E+01 -2.0252760544E+02  7.8618547732E+01  3.5949770348E+02  2.6889276000E+02 0. 9.
 1000024    2    1    2    0    0 -9.8676113693E+01  2.0252760544E+02 -7.0258478624E+02  7.8534057076E+02  2.6903535800E+02 0. 9.
 1000022    1    3    0    0    0  6.4038484301E+01 -6.0965143306E+01  4.9405401402E+01  1.6398065860E+02  1.2896157000E+02 0. 9.
      25    2    3    0    0    0  3.4637629392E+01 -1.4156246214E+02  2.9213146329E+01  1.9551704488E+02  1.2701893900E+02 0. 9.
 1000022    1    4    0    0    0  6.1639493783E+00  3.6446383707E+01 -3.3535206875E+02  3.6119029570E+02  1.2896157000E+02 0. 9.
      24    2    4    0    0    0 -1.0484006307E+02  1.6608122174E+02 -3.6723271748E+02  4.2415027506E+02  8.0431188000E+01 0. 9.
       5    1    6    0  102    0 -6.0300670988E+00 -1.4774505849E+02  6.0593640961E+00  1.4806998315E+02  4.8000000000E+00 0. 9.
      -5    1    6    0    0  102  4.0667696491E+01  6.1825963486E+00  2.3153782233E+01  4.7447061734E+01  4.8000000000E+00 0. 9.
      -1    1    8    0    0  103 -4.6273996994E+01  1.1837263327E+02 -2.8737329568E+02  3.1422425603E+02  3.3000000000E-01 0. 9.
       2    1    8    0  103    0 -5.8566066077E+01  4.7708588472E+01 -7.9859421800E+01  1.0992601903E+02  3.3000000000E-01 0. 9.
</event>
<event>
    24   259  1.000000E+00  1.121107E+03  7.987734E-03  9.154652E-02
       2   -1    0    0  101    0  0.0000000000E+00  0.0000000000E+00  1.3634810507E+03  1.3634810507E+03  0.0000000000E+00 0. 9.
      21   -1    0    0  102  101  0.0000000000E+00  0.0000000000E+00 -9.2568741582E+02  9.2568741582E+02  0.0000000000E+00 0. 9.
 2000002    2    1    2  103    0  1.3249624126E+02 -6.1142925859E+02  3.2016595571E+02  1.2151465716E+03  9.9129912700E+02 0. 9.
 1000021    2    1    2  102  103 -1.3249624126E+02  6.1142925859E+02  1.1762767915E+02  1.0740218948E+03  8.6503512500E+02 0. 9.
 1000021    2    3    0  103  104  1.5623456282E+02 -4.1862843607E+02  2.2716215475E+02  9.9977368346E+02  8.6503512500E+02 0. 9.
       2    1    3    0  104    0 -2.3738321561E+01 -1.9280082252E+02  9.3003800957E+01  2.1537288819E+02  3.3000000000E-01 0. 9.
 1000024    2    4    0    0    0  7.8287483639E+00  2.9606695393E+02 -1.2664747414E+02  4.1968623646E+02  2.6903535800E+02 0. 9.
      -4    1    4    0    0  103 -1.5910062855E+02  3.1077909021E+02  3.8069447491E+02  5.1655317843E+02  1.5000000000E+00 0. 9.
       3    1    4    0  102    0  1.8775638928E+01  4.5832144511E+00 -1.3641932162E+02  1.3778247996E+02  5.0000000000E-01 0. 9.
 1000024    2    5    0    0    0 -1.1028413921E+01 -8.6874679672E+01  4.1307233954E+02  5.0067715888E+02  2.6903535800E+02 0. 9.
      -6    2    5    0    0  104  4.5273318818E+01 -1.1246732063E+02 -7.0581382255E+01  2.2288683929E+02  1.7320000000E+02 0. 9.
       5    1    5    0  103    0  1.2198965793E+02 -2.1928643577E+02 -1.1532880254E+02  2.7620968529E+02  4.8000000000E+00 0. 9.
 1000022    1    7    0    0    0  5.4499064569E+00  2.8469923920E+02 -1.2953576194E+02  3.3836955898E+02  1.2896157000E+02 0. 9.
      24    2    7    0    0    0  2.3788419070E+00  1.1367714725E+01  2.8882877960E+00  8.1316677480E+01  8.0431188000E+01 0. 9.
 1000022    1   10    0    0    0  2.9624060120E+01 -8.7412163654E+01  1.3467209008E+02  2.0805318953E+02  1.2896157000E+02 0. 9.
      24    2   10    0    0    0 -4.0652474041E+01  5.3748398215E-01  2.7840024946E+02  2.9262396935E+02  8.0431188000E+01 0. 9.
     -24    2   11    0    0    0 -1.6766297985E+01 -5.3203777382E+00 -5.2558637916E+01  9.7678050708E+01  8.0431188000E+01 0. 9.
      -5    1   11    0    0  104  6.2039616803E+01 -1.0714694289E+02 -1.8022744339E+01  1.2520878858E+02  4.8000000000E+00 0. 9.
      -1    1   14    0    0  105  2.9408303244E+01 -4.9263365209E+00  2.8059671156E+01  4.0945953849E+01  3.3000000000E-01 0. 9.
       2    1   14    0  105    0 -2.7029461337E+01  1.6294051246E+01 -2.5171383360E+01  4.0370723631E+01  3.3000000000E-01 0. 9.
      -3    1   16    0    0  106 -1.0445828780E+01  6.0007949719E+00  2.5147639628E+02  2.5176527315E+02  5.0000000000E-01 0. 9.
       4    1   16    0  106    0 -3.0206645261E+01 -5.4633109898E+00  2.6923853182E+01  4.0858696199E+01  1.5000000000E+00 0. 9.
       3    1   17    0  107    0  1.4326972645E+01 -3.3836195901E+01 -3.8401533444E+01  5.3151463471E+01  5.0000000000E-01 0. 9.
      -4    1   17    0    0  107 -3.1093270629E+01  2.8515818163E+01 -1.4157104472E+01  4.4526587237E+01  1.5000000000E+00 0. 9.
</event>
<event>
    20   259  1.000000E+00  1.003185E+03  7.977539E-03  9.269730E-02
      21   -1    0    0  101  102  0.0000000000E+00  0.0000000000E+00  3.4171704003E+02  3.4171704003E+02  0.0000000000E+00 0. 9.
       2   -1    0    0  102    0  0.0000000000E+00  0.0000000000E+00 -2.9399522268E+03  2.9399522268E+03  0.0000000000E+00 0. 9.
 1000021    2    1    2  101  103 -1.9271617272E+02  3.2212019459E+02 -1.1564701480E+03  1.4921829357E+03  8.6503512500E+02 0. 9.
 2000002    2    1    2  103    0  1.9271617272E+02 -3.2212019459E+02 -1.4417650388E+03  1.7894863311E+03  9.9129912700E+02 0. 9.
-1000024    2    3    0    0    0 -5.7233597619E+01  2.2672967126E+01 -5.7919649950E+02  6.4159049013E+02  2.6903535800E+02 0. 9.
       2    1    3    0  101    0 -3.3362452706E+02  1.8902019126E+02 -2.7136537542E+02  4.6975869725E+02  3.3000000000E-01 0. 9.
      -1    1    3    0    0  103  1.9814195196E+02  1.1042703620E+02 -3.0590827306E+02  3.8083374834E+02  3.3000000000E-01 0. 9.
 1000021    2    4    0  103  104  5.6277216304E+01 -2.9722948888E+02 -1.3056942387E+03  1.5951914326E+03  8.6503512500E+02 0. 9.
       2    1    4    0  104    0  1.3643895641E+02 -2.4890705707E+01 -1.3607080008E+02  1.9429489853E+02  3.3000000000E-01 0. 9.
 1000022    1    5    0    0    0 -1.0259436000E+02  5.7149012964E+01 -4.1369019589E+02  4.4895687666E+02  1.2896157000E+02 0. 9.
     -24    2    5    0    0    0  4.5360762381E+01 -3.4476045838E+01 -1.6550630361E+02  1.9263361347E+02  8.0431188000E+01 0. 9.
 1000023    2    8    0    0    0  3.5196634930E+02 -2.4811703738E+02 -6.7839786537E+02  8.4733072375E+02  2.6889276000E+02 0. 9.
       2    1    8    0  103    0 -2.5317841979E+02  4.0197447769E+01 -5.8795977965E+02  6.4141403043E+02  3.3000000000E-01 0. 9.
      -2    1    8    0    0  104 -4.2510713212E+01 -8.9309899266E+01 -3.9336593718E+01  1.0644667844E+02  3.3000000000E-01 0. 9.
       3    1   11    0  105    0 -6.5883640323E+00 -5.7681486118E+00  6.3383317768E+00  1.0821392181E+01  5.0000000000E-01 0. 9.
      -4    1   11    0    0  105  5.1949126413E+01 -2.8707897226E+01 -1.7184463539E+02  1.8181222129E+02  1.5000000000E+00 0. 9.
 1000022    1   12    0    0    0  1.9244114647E+02 -1.9067422380E+02 -5.0923430369E+02  5.9105068908E+02  1.2896157000E+02 0. 9.
      23    2   12    0    0    0  1.5952520284E+02 -5.7442813589E+01 -1.6916356169E+02  2.5628003467E+02  9.1187600000E+01 0. 9.
       1    1   18    0  106    0  1.3750530567E+02 -3.2891309769E+01 -8.2829852953E+01  1.6386104108E+02  3.3000000000E-01 0. 9.
      -1    1   18    0    0  106  2.2019897168E+01 -2.4551503821E+01 -8.6333708734E+01  9.2418993584E+01  3.3000000000E-01 0. 9.
</event>
<event>
    12   230  1.000000E+00  3.369038E+02  7.878805E-03  1.057484E-01
      -1   -1    0    0    0  101  0.0000000000E+00  0.0000000000E+00  9.9838072452E+01  9.9838072452E+01  0.0000000000E+00 0. 9.
       2   -1    0    0  101    0  0.0000000000E+00  0.0000000000E+00 -1.2468114714E+03  1.2468114714E+03  0.0000000000E+00 0. 9.
 1000023    2    1    2    0    0  1.9608280956E+02  5.2096494231E+01 -7.7332920876E+02  8.4350690242E+02  2.6889276000E+02 0. 9.
 1000024    2    1    2    0    0 -1.9608280956E+02 -5.2096494231E+01 -3.7364419016E+02  5.0314264142E+02  2.6903535800E+02 0. 9.
 1000022    1    3    0    0    0  9.2969128149E+01  4.6319436791E+00 -2.8581342465E+02  3.2708578987E+02  1.2896157000E+02 0. 9.
      25    2    3    0    0    0  1.0311368141E+02  4.7464550552E+01 -4.8751578412E+02  5.1642111254E+02  1.2701893900E+02 0. 9.
 1000022    1    4    0    0    0 -2.0022288658E+02 -6.1442670321E+01 -2.2268996809E+02  3.3179257748E+02  1.2896157000E+02 0. 9.
      24    2    4    0    0    0  4.1400770261E+00  9.3461760896E+00 -1.5095422208E+02  1.7135006394E+02  8.0431188000E+01 0. 9.
       5    1    6    0  102    0 -1.8549231182E+00 -5.2410649840E+00 -2.6201804302E+02  2.6212097278E+02  4.8000000000E+00 0. 9.
      -5    1    6    0    0  102  1.0496860452E+02  5.2705615536E+01 -2.2549774110E+02  2.5430013977E+02  4.8000000000E+00 0. 9.
      -3    1    8    0    0  103 -3.0085337243E+00 -1.0274805168E+01  6.4835210094E+00  1.2526329913E+01  5.0000000000E-01 0. 9.
       4    1    8    0  103    0  7.1486107504E+00  1.9620981258E+01 -1.5743774309E+02  1.5882373402E+02  1.5000000000E+00 0. 9.
</event>
<event>
    12   230  1.000000E+00  3.203381E+02  7.874302E-03  1.064409E-01
      -1   -1    0    0    0  101  0.0000000000E+00  0.0000000000E+00  4.7264986066E+01  4.7264986066E+01  0.0000000000E+00 0. 9.
       2   -1    0    0  101    0  0.0000000000E+00  0.0000000000E+00 -2.3581081929E+03  2.3581081929E+03  0.0000000000E+00 0. 9.
 1000023    2    1    2    0    0 -1.6774689530E+02  4.6214518757E+01 -8.1652355663E+02  8.7709112271E+02  2.6889276000E+02 0. 9.
 1000024    2    1    2    0    0  1.6774689530E+02 -4.6214518757E+01 -1.4943196502E+03  1.5282820563E+03  2.6903535800E+02 0. 9.
 1000022    1    3    0    0    0 -1.1497972044E+02  5.7556104478E+01 -4.5081628856E+02  4.8620926960E+02  1.2896157000E+02 0. 9.
      25    2    3    0    0    0 -5.2767174861E+01 -1.1341585720E+01 -3.6570726806E+02  3.9088185311E+02  1.2701893900E+02 0. 9.
 1000022    1    4    0    0    0  1.2957674386E+02  1.9273812656E+01 -6.1041056727E+02  6.3749020351E+02  1.2896157000E+02 0. 9.
      24    2    4    0    0    0  3.8170151445E+01 -6.5488331414E+01 -8.8390908296E+02  8.9079185277E+02  8.0431188000E+01 0. 9.
       5    1    6    0  102    0 -5.8310442465E+00  3.3044316488E+01 -2.0422571533E+01  3.9573341497E+01  4.8000000000E+00 0. 9.
      -5    1    6    0    0  102 -4.6936130615E+01 -4.4385902209E+01 -3.4528469653E+02  3.5130851161E+02  4.8000000000E+00 0. 9.
      -3    1    8    0    0  103 -1.0808760491E+01  1.2951888931E+01 -9.5902150733E+01  9.7375835018E+01  5.0000000000E-01 0. 9.
       4    1    8    0  103    0  4.8978911936E+01 -7.8440220344E+01 -7.8800693223E+02  7.9341601775E+02  1.5000000000E+00 0. 9.
</event>
<event>
    12   226  1.000000E+00  3.342901E+02  7.878109E-03  1.058548E-01
       2   -1    0    0  101    0  0.0000000000E+00  0.0000000000E+00  1.5524665086E+03  1.5524665086E+03  0.0000000000E+00 0. 9.
      -2   -1    0    0    0  101  0.0000000000E+00  0.0000000000E+00 -8.3178359786E+01  8.3178359786E+01  0.0000000000E+00 0. 9.
 1000024    2    1    2    0    0  6.7501531361E+01  1.8658341116E+02  1.0346913563E+03  1.0873527729E+03  2.6903535800E+02 0. 9.
-1000024    2    1    2    0    0 -6.7501531361E+01 -1.8658341116E+02  4.3459679246E+02  5.4829209544E+02  2.6903535800E+02 0. 9.
 1000022    1    3    0    0    0  5.9696606512E+01  1.9884731790E+02  6.5873403989E+02  7.0261338054E+02  1.2896157000E+02 0. 9.
      24    2    3    0    0    0  7.8049248490E+00 -1.2263906742E+01  3.7595731646E+02  3.8473939240E+02  8.0431188000E+01 0. 9.
 1000022    1    4    0    0    0 -4.4055046824E+01 -1.9033473092E+02  3.8579964641E+02  4.5126556555E+02  1.2896157000E+02 0. 9.
     -24    2    4    0    0    0 -2.3446484537E+01  3.7513197628E+00  4.8797146048E+01  9.7026529890E+01  8.0431188000E+01 0. 9.
     -11    1    6    0    0    0  2.7578612957E+01 -9.8498510200E+00  3.5353686095E+02  3.5474767301E+02  5.1000000000E-04 0. 9.
      12    1    6    0    0    0 -1.9773688108E+01 -2.4140557224E+00  2.2420455510E+01  2.9991719385E+01  0.0000000000E+00 0. 9.
       1    1    8    0  102    0 -2.9734370806E+00  2.8791103651E+01 -9.3952382498E+00  3.0432686034E+01  3.3000000000E-01 0. 9.
      -4    1    8    0    0  102 -2.0473047456E+01 -2.5039783888E+01  5.8192384297E+01  6.6593843856E+01  1.5000000000E+00 0. 9.
</event>
<event>
    12   230  1.000000E+00  2.996754E+02  7.868354E-03  1.073707E-01
      -4   -1    0    0    0  101  0.0000000000E+00  0.0000000000E+00  1.5253183657E+02  1.5253183657E+02  0.0000000000E+00 0. 9.
       1   -1    0    0  101    0  0.0000000000E+00  0.0000000000E+00 -6.1801897319E+02  6.1801897319E+02  0.0000000000E+00 0. 9.
-1000024    2    1    2    0    0  4.7329972934E+01  1.2338370909E+02 -1.4896729042E+02  3.3471621334E+02  2.6903535800E+02 0. 9.
 1000023    2    1    2    0    0 -4.7329972934E+01 -1.2338370909E+02 -3.1651984621E+02  4.3583459641E+02  2.6889276000E+02 0. 9.
 1000022    1    3    0    0    0  6.6382990114E+00 -2.6816522384E+00 -1.2149806230E+02  1.7732491069E+02  1.2896157000E+02 0. 9.
     -24    2    3    0    0    0  4.0691673923E+01  1.2606536133E+02 -2.7469228114E+01  1.5739130265E+02  8.0431188000E+01 0. 9.
 1000022    1    4    0    0    0 -9.6390041116E+01 -9.7284171725E+01 -1.6348846817E+02  2.4922844110E+02  1.2896157000E+02 0. 9.
      23    2    4    0    0    0  4.9060068181E+01 -2.6099537365E+01 -1.5303137804E+02  1.8660615531E+02  9.1187600000E+01 0. 9.
       3    1    6    0  102    0 -7.5648282416E-01  9.3509985958E+00 -3.2093563374E+01  3.3440398489E+01  5.0000000000E-01 0. 9.
      -4    1    6    0    0  102  4.1448156747E+01  1.1671436273E+02  4.6243352603E+00  1.2395090416E+02  1.5000000000E+00 0. 9.
      12    1    8    0    0    0  7.3052961418E+01 -7.0083107334E+00 -8.7114047938E+01  1.1390657988E+02  0.0000000000E+00 0. 9.
     -12    1    8    0    0    0 -2.3992893236E+01 -1.9091226631E+01 -6.5917330102E+01  7.2699575432E+01  0.0000000000E+00 0. 9.
</event>
<event>
    12   226  1.000000E+00  2.896811E+02  7.865332E-03  1.078500E-01
      -1   -1    0    0    0  101  0.0000000000E+00  0.0000000000E+00  1.0128138309E+02  1.0128138309E+02  0.0000000000E+00 0. 9.
       1   -1    0    0  101    0  0.0000000000E+00  0.0000000000E+00 -9.4971695166E+02  9.4971695166E+02  0.0000000000E+00 0. 9.
 1000024    2    1    2    0    0 -9.0483945480E+01  5.7860132789E+01 -6.1193065081E+02  6.7703344423E+02  2.6903535800E+02 0. 9.
-1000024    2    1    2    0    0  9.0483945480E+01 -5.7860132789E+01 -2.3650491777E+02  3.7396489052E+02  2.6903535800E+02 0. 9.
 1000022    1    3    0    0    0 -2.9571086580E+01 -4.1538498151E+01 -3.8835535381E+02  4.1237223884E+02  1.2896157000E+02 0. 9.
      24    2    3    0    0    0 -6.0912858900E+01  9.9398630940E+01 -2.2357529699E+02  2.6466120539E+02  8.0431188000E+01 0. 9.
 1000022    1    4    0    0    0 -1.6663436349E+01 -5.7801179978E+01 -6.5299079347E+01  1.5656852435E+02  1.2896157000E+02 0. 9.
     -24    2    4    0    0    0  1.0714738183E+02 -5.8952811809E-02 -1.7120583842E+02  2.1739636616E+02  8.0431188000E+01 0. 9.
      -3    1    6    0    0  102 -1.9791635947E+01  6.1552709060E+01 -4.8359265091E+01  8.0742265055E+01  5.0000000000E-01 0. 9.
       4    1    6    0  102    0 -4.1121222953E+01  3.7845921880E+01 -1.7521603190E+02  1.8391894034E+02  1.5000000000E+00 0. 9.
      15    1    8    0    0    0  1.1689000291E+02  1.1360150617E+01 -1.6081404757E+02  1.9913975351E+02  1.7770000000E+00 0. 9.
     -16    1    8    0    0    0 -9.7426210776E+00 -1.1419103429E+01 -1.0391790848E+01  1.8256612654E+01  0.0000000000E+00 0. 9.
</event>
<event>
    12   230  1.000000E+00  3.793327E+02  7.889420E-03  1.041543E-01
      -2   -1    0    0    0  101  0.0000000000E+00  0.0000000000E+00  2.0785619708E+02  2.0785619708E+02  0.0000000000E+00 0. 9.
       1   -1    0    0  101    0  0.0000000000E+00  0.0000000000E+00 -7.9531270716E+02  7.9531270716E+02  0.0000000000E+00 0. 9.
-1000024    2    1    2    0    0  2.4442550313E-01  2.6749117728E+02 -1.1322077954E+02  3.9591736315E+02  2.6903535800E+02 0. 9.
 1000023    2    1    2    0    0 -2.4442550313E-01 -2.6749117728E+02 -4.7423573054E+02  6.0725154110E+02  2.6889276000E+02 0. 9.
 1000022    1    3    0    0    0  9.1733290963E+00  2.6585325677E+02 -1.0826280996E+02  3.1482380256E+02  1.2896157000E+02 0. 9.
     -24    2    3    0    0    0 -8.9289035932E+00  1.6379205103E+00 -4.9579695830E+00  8.1093560586E+01  8.0431188000E+01 0. 9.
 1000022    1    4    0    0    0  1.0929985596E+01 -1.1989886107E+02 -2.8694939248E+02  3.3684750534E+02  1.2896157000E+02 0. 9.
      25    2    4    0    0    0 -1.1174411099E+01 -1.4759231621E+02 -1.8728633806E+02  2.7040403576E+02  1.2701893900E+02 0. 9.
      11    1    6    0    0    0 -4.4309849083E+01 -5.8237168321E+00 -8.2079857151E-01  4.4698457625E+01  5.1000000000E-04 0. 9.
     -12    1    6    0    0    0  3.5380945489E+01  7.4616373423E+00 -4.1371710115E+00  3.6395102961E+01  0.0000000000E+00 0. 9.
       5    1    8    0  102    0  3.5461308528E+01 -1.4102884264E+02 -1.5776194708E+02  2.1461246656E+02  4.8000000000E+00 0. 9.
      -5    1    8    0    0  102 -4.6635719627E+01 -6.5634735654E+00 -2.9524390982E+01  5.5791569195E+01  4.8000000000E+00 0. 9.
</event>
<event>
    16   271  1.000000E+00  1.040967E+03  7.980927E-03  9.231129E-02
       1   -1    0    0  101    0  0.0000000000E+00  0.0000000000E+00  1.5107763868E+03  1.5107763868E+03  0.0000000000E+00 0. 9.
       2   -1    0    0  102    0  0.0000000000E+00  0.0000000000E+00 -1.0921532587E+03  1.0921532587E+03  0.0000000000E+00 0. 9.
 1000001    2    1    2  102    0  4.8967897614E+01  3.0876703388E+02  9.7200220517E+02  1.4251995730E+03  9.9431916400E+02 0. 9.
 1000002    2    1    2  101    0 -4.8967897614E+01 -3.0876703388E+02 -5.5337907700E+02  1.1777300725E+03  9.9150632100E+02 0. 9.
-1000024    2    3    0    0    0  1.4011492840E+02 -2.0111784718E+02  8.0087719444E+02  8.7969590544E+02  2.6903535800E+02 0. 9.
       2    1    3    0  102    0 -9.1147030781E+01  5.0988488106E+02  1.7112501072E+02  5.4550366759E+02  3.3000000000E-01 0. 9.
 1000024    2    4    0    0    0  1.9104201857E+02  3.3845717581E+01  1.4630768344E+02  3.6253075393E+02  2.6903535800E+02 0. 9.
       1    1    4    0  101    0 -2.4000991619E+02 -3.4261275146E+02 -6.9968676045E+02  8.1519931856E+02  3.3000000000E-01 0. 9.
 1000022    1    5    0    0    0  2.9466901589E+01 -1.5645938317E+01  3.1025142034E+02  3.3763904400E+02  1.2896157000E+02 0. 9.
     -24    2    5    0    0    0  1.1064802681E+02 -1.8547190886E+02  4.9062577410E+02  5.4205686144E+02  8.0431188000E+01 0. 9.
 1000022    1    7    0    0    0  1.8103151564E+02  2.7730488219E+01  1.6611896306E+02  2.7886911994E+02  1.2896157000E+02 0. 9.
      24    2    7    0    0    0  1.0010502939E+01  6.1152293623E+00 -1.9811279620E+01  8.3661633994E+01  8.0431188000E+01 0. 9.
      15    1   10    0    0    0  3.0587037939E+01 -1.0652776898E+02  3.1078617101E+02  3.2996201944E+02  1.7770000000E+00 0. 9.
     -16    1   10    0    0    0  8.0060988867E+01 -7.8944139885E+01  1.7983960309E+02  2.1209484199E+02  0.0000000000E+00 0. 9.
      -3    1   12    0    0  103  2.2738473869E+01  1.5513637584E+01 -4.5660053078E+01  5.3317929368E+01  5.0000000000E-01 0. 9.
       4    1   12    0  103    0 -1.2727970930E+01 -9.3984082221E+00  2.5848773458E+01  3.0343704626E+01  1.5000000000E+00 0. 9.
</event>
<event>
    16   271  1.000000E+00  1.065829E+03  7.983092E-03  9.206653E-02
       2   -1    0    0  101    0  0.0000000000E+00  0.0000000000E+00  1.2379003943E+03  1.2379003943E+03  0.0000000000E+00 0. 9.
       1   -1    0    0  102    0  0.0000000000E+00  0.0000000000E+00 -9.5359724986E+02  9.5359724986E+02  0.0000000000E+00 0. 9.
 1000002    2    1    2  102    0  1.7739160565E+02  3.4445089299E+02  3.5465540523E+02  1.1220425306E+03  9.9150632100E+02 0. 9.
 1000001    2    1    2  101    0 -1.7739160565E+02 -3.4445089299E+02 -7.0352260782E+01  1.0694551136E+03  9.9431916400E+02 0. 9.
 1000024    2    3    0    0    0  5.1520374394E+02  5.8011789590E+01  5.3714851163E+01  5.8657103116E+02  2.6903535800E+02 0. 9.
       1    1    3    0  102    0 -3.3781213829E+02  2.8643910340E+02  3.0094055407E+02  5.3547149945E+02  3.3000000000E-01 0. 9.
-1000024    2    4    0    0    0 -2.3931739836E+02 -4.6669419419E+02  3.0940967825E+02  6.6572566489E+02  2.6903535800E+02 0. 9.
       2    1    4    0  101    0  6.1925792712E+01  1.2224330119E+02 -3.7976193903E+02  4.0372944868E+02  3.3000000000E-01 0. 9.
 1000022    1    5    0    0    0  4.1217933799E+02  4.0621714999E+00  8.8681387081E+01  4.4091244353E+02  1.2896157000E+02 0. 9.
      24    2    5    0    0    0  1.0302440595E+02  5.3949618091E+01 -3.4966535918E+01  1.4565858763E+02  8.0431188000E+01 0. 9.
 1000022    1    7    0    0    0 -2.1766330148E+02 -3.8794994928E+02  1.9120654865E+02  5.0107235679E+02  1.2896157000E+02 0. 9.
     -24    2    7    0    0    0 -2.1654096883E+01 -7.8744244902E+01  1.1820312960E+02  1.6465330810E+02  8.0431188000E+01 0. 9.
      -1    1   10    0    0  103  7.1179049277E+01 -2.6603791148E+00 -3.7810859309E+01  8.0643069477E+01  3.3000000000E-01 0. 9.
       2    1   10    0  103    0  3.1845356672E+01  5.6609997205E+01  2.8443233912E+00  6.5015518153E+01  3.3000000000E-01 0. 9.
       1    1   12    0  104    0  2.1733341335E+01 -6.5709470511E+01  7.4924102101E+01  1.0199903243E+02  3.3000000000E-01 0. 9.
      -2    1   12    0    0  104 -4.3387438217E+01 -1.3034774392E+01  4.3279027497E+01  6.2654275669E+01  3.3000000000E-01 0. 9.
</event>
<event>
    12   230  1.000000E+00  3.023570E+02  7.869148E-03  1.072456E-01
      -1   -1    0    0    0  101  0.0000000000E+00  0.0000000000E+00  1.7814924121E+02  1.7814924121E+02  0.0000000000E+00 0. 9.
       2   -1    0    0  101    0  0.0000000000E+00  0.0000000000E+00 -7.3357532092E+02  7.3357532092E+02  0.0000000000E+00 0. 9.
 1000023    2    1    2    0    0 -2.3949929426E+01 -1.3603124057E+02 -5.2755046027E+02  6.0802212299E+02  2.6889276000E+02 0. 9.
 1000024    2    1    2    0    0  2.3949929426E+01  1.3603124057E+02 -2.7875619440E+01  3.0370243915E+02  2.6903535800E+02 0. 9.
 1000022    1    3    0    0    0  1.7622951473E+01 -4.0523481777E+01 -2.0743677889E+02  2.4822132214E+02  1.2896157000E+02 0. 9.
      25    2    3    0    0    0 -4.1572880899E+01 -9.5507758790E+01 -3.2011368139E+02  3.5980080085E+02  1.2701893900E+02 0. 9.
 1000022    1    4    0    0    0  6.5055812301E+01  5.5697630953E+01  4.6661869613E+01  1.6168766626E+02  1.2896157000E+02 0. 9.
      24    2    4    0    0    0 -4.1105882875E+01  8.0333609614E+01 -7.4537489052E+01  1.4201477289E+02  8.0431188000E+01 0. 9.
       5    1    6    0  102    0 -6.6766280814E+01 -7.3635097874E+01 -1.1562102838E+02  1.5254876629E+02  4.8000000000E+00 0. 9.
      -5    1    6    0    0  102  2.5193399916E+01 -2.1872660917E+01 -2.0449265301E+02  2.0725203456E+02  4.8000000000E+00 0. 9.
     -13    1    8    0    0    0 -5.7278888058E+00  7.6797042792E+01 -2.4857224867E+01  8.0922724150E+01  1.0566000000E-01 0. 9.
      14    1    8    0    0    0 -3.5377994069E+01  3.5365668223E+00 -4.9680264185E+01  6.1092048736E+01  0.0000000000E+00 0. 9.
</event>
<event>
    12   230  1.000000E+00  2.913841E+02  7.865854E-03  1.077669E-01
      -1   -1    0    0    0  101  0.0000000000E+00  0.0000000000E+00  2.5905306246E+02  2.5905306246E+02  0.0000000000E+00 0. 9.
       2   -1    0    0  101    0  0.0000000000E+00  0.0000000000E+00 -3.2835521609E+02  3.2835521609E+02  0.0000000000E+00 0. 9.
 1000023    2    1    2    0    0  9.6699415039E+01  5.6676769937E+01 -4.7250313245E+01  2.9512529814E+02  2.6889276000E+02 0. 9.
 1000024    2    1    2    0    0 -9.6699415039E+01 -5.6676769937E+01 -2.2051840391E+01  2.9228298041E+02  2.6903535800E+02 0. 9.
 1000022    1    3    0    0    0  1.0195625548E+01  4.1244745186E+01 -9.4000486222E+00  1.3610483914E+02  1.2896157000E+02 0. 9.
      25    2    3    0    0    0  8.6503789491E+01  1.5432024751E+01 -3.7850264623E+01  1.5902045900E+02  1.2701893900E+02 0. 9.
 1000022    1    4    0    0    0 -8.6799995477E+01 -1.0980224886E+02 -3.8008399943E+01  1.9407858736E+02  1.2896157000E+02 0. 9.
      24    2    4    0    0    0 -9.8994195623E+00  5.3125478922E+01  1.5956559552E+01  9.8204393049E+01  8.0431188000E+01 0. 9.
       5    1    6    0  102    0 -2.5496090310E+01 -2.4041445518E+01 -1.2362661932E+01  3.7468882206E+01  4.8000000000E+00 0. 9.
      -5    1    6    0    0  102  1.1199987980E+02  3.9473470269E+01 -2.5487602691E+01  1.2155157680E+02  4.8000000000E+00 0. 9.
      -3    1    8    0    0  103  3.4430239757E+01  2.5019845362E+01 -2.2614076536E+00  4.2623913902E+01  5.0000000000E-01 0. 9.
       4    1    8    0  103    0 -4.4329659320E+01  2.8105633560E+01  1.8217967205E+01  5.5580479148E+01  1.5000000000E+00 0. 9.
</event>
<event>
    12   230  1.000000E+00  3.718219E+02  7.887628E-03  1.044197E-01
       2   -1    0    0  101    0  0.0000000000E+00  0.0000000000E+00  1.1694777997E+03  1.1694777997E+03  0.0000000000E+00 0. 9.
      -1   -1    0    0    0  101  0.0000000000E+00  0.0000000000E+00 -1.6157813196E+02  1.6157813196E+02  0.0000000000E+00 0. 9.
 1000024    2    1    2    0    0 -6.5444248854E+01 -2.4824768178E+02  8.4876982023E+02  9.2666072152E+02  2.6903535800E+02 0. 9.
 1000023    2    1    2    0    0  6.5444248854E+01  2.4824768178E+02  1.5912984748E+02  4.0439521011E+02  2.6889276000E+02 0. 9.
 1000022    1    3    0    0    0 -1.0671266817E+02 -2.0069072135E+02  5.1349070059E+02  5.7616676866E+02  1.2896157000E+02 0. 9.
      24    2    3    0    0    0  4.1268419312E+01 -4.7556960434E+01  3.3527911965E+02  3.5049395286E+02  8.0431188000E+01 0. 9.
 1000022    1    4    0    0    0  2.9801019217E+01  1.7086749510E+02  6.9065704776E+01  2.2690297429E+02  1.2896157000E+02 0. 9.
      25    2    4    0    0    0  3.5643229637E+01  7.7380186682E+01  9.0064142706E+01  1.7749223582E+02  1.2701893900E+02 0. 9.
     -15    1    6    0    0    0  2.9640204966E+01 -5.8272973522E+01  3.2526872870E+02  3.3177881909E+02  1.7770000000E+00 0. 9.
      16    1    6    0    0    0  1.1628214346E+01  1.0716013089E+01  1.0010390947E+01  1.8715133777E+01  0.0000000000E+00 0. 9.
       5    1    8    0  102    0 -2.6421681220E+01 -6.8996794654E+00 -1.2909954043E+01  3.0584599534E+01  4.8000000000E+00 0. 9.
      -5    1    8    0    0  102  6.2064910857E+01  8.4279866147E+01  1.0297409675E+02  1.4690763629E+02  4.8000000000E+00 0. 9.
</event>
<event>
    12   226  1.000000E+00  2.886477E+02  7.865014E-03  1.079007E-01
       1   -1    0    0  101    0  0.0000000000E+00  0.0000000000E+00  6.1488915943E+02  6.1488915943E+02  0.0000000000E+00 0. 9.
      -1   -1    0    0    0  101  0.0000000000E+00  0.0000000000E+00 -1.3920828790E+02  1.3920828790E+02  0.0000000000E+00 0. 9.
-1000024    2    1    2    0    0 -9.9261006044E+01  3.2934787576E+01  1.7630113261E+02  3.3823004119E+02  2.6903535800E+02 0. 9.
 1000024    2    1    2    0    0  9.9261006044E+01 -3.2934787576E+01  2.9937973892E+02  4.1586740613E+02  2.6903535800E+02 0. 9.
 1000022    1    3    0    0    0 -1.1310781717E+02  8.5308302069E+01  1.2116091029E+02  2.2667584217E+02  1.2896157000E+02 0. 9.
     -24    2    3    0    0    0  1.3846811123E+01 -5.2373514494E+01  5.5140222322E+01  1.1155419902E+02  8.0431188000E+01 0. 9.
 1000022    1    4    0    0    0  1.0414342326E+02 -8.4046466629E+01  1.5103872543E+02  2.3948579139E+02  1.2896157000E+02 0. 9.
      24    2    4    0    0    0 -4.8824172146E+00  5.1111679053E+01  1.4834101349E+02  1.7638161474E+02  8.0431188000E+01 0. 9.
       3    1    6    0  102    0  2.0903550643E+01  1.6757252550E+01  9.6276847689E+00  2.8472903900E+01  5.0000000000E-01 0. 9.
      -4    1    6    0    0  102 -7.0567395196E+00 -6.9130767043E+01  4.5512537553E+01  8.3081295122E+01  1.5000000000E+00 0. 9.
      -1    1    8    0    0  103 -3.3066140380E+01  5.6030359355E+01  1.1752032551E+02  1.3432760929E+02  3.3000000000E-01 0. 9.
       2    1    8    0  103    0  2.8183723165E+01 -4.9186803015E+00  3.0820687979E+01  4.2054005456E+01  3.3000000000E-01 0. 9.
</event>
<event>
    21   258  1.000000E+00  1.013831E+03  7.978506E-03  9.258676E-02
      21   -1    0    0  101  102  0.0000000000E+00  0.0000000000E+00  6.6457101781E+02  6.6457101781E+02  0.0000000000E+00 0. 9.
       2   -1    0    0  102    0  0.0000000000E+00  0.0000000000E+00 -1.6672647416E+03  1.6672647416E+03  0.0000000000E+00 0. 9.
 1000021    2    1    2  101  103 -8.4886415109E+00 -4.0261199552E+02 -7.9441425709E+02  1.2415910177E+03  8.6503512500E+02 0. 9.
 1000002    2    1    2  103    0  8.4886415109E+00  4.0261199552E+02 -2.0827946674E+02  1.0902447417E+03  9.9150632100E+02 0. 9.
 1000024    2    3    0    0    0  7.4671369005E+01 -7.1091486845E+01 -3.0173140370E+02  4.1719501038E+02  2.6903535800E+02 0. 9.
      -6    2    3    0    0  103 -5.9214322029E+01 -4.4777713614E+02 -2.2904375797E+02  5.3522890678E+02  1.7320000000E+02 0. 9.
       5    1    3    0  101    0 -2.3945688487E+01  1.1625662746E+02 -2.6363909542E+02  2.8916710058E+02  4.8000000000E+00 0. 9.
 1000024    2    4    0    0    0  1.5831491836E+02  3.1804399455E+02  3.1085276742E+02  5.4334617208E+02  2.6903535800E+02 0. 9.
       1    1    4    0  103    0 -1.4982627684E+02  8.4568000973E+01 -5.1913223416E+02  5.4689856963E+02  3.3000000000E-01 0. 9.
 1000022    1    5    0    0    0  5.5957107551E+00 -1.1466220251E+02 -1.9669418988E+02  2.6172203486E+02  1.2896157000E+02 0. 9.
      24    2    5    0    0    0  6.9075658250E+01  4.3570715661E+01 -1.0503721382E+02  1.5547297552E+02  8.0431188000E+01 0. 9.
     -24    2    6    0    0    0  6.2245129216E+00 -2.5902145369E+02 -1.9105222075E+02  3.3181468486E+02  8.0431188000E+01 0. 9.
      -5    1    6    0    0  103 -6.5438834951E+01 -1.8875568246E+02 -3.7991537224E+01  2.0341422192E+02  4.8000000000E+00 0. 9.
 1000022    1    8    0    0    0  1.0518686145E+02  7.3403794896E+01  1.1114701388E+02  2.1315988872E+02  1.2896157000E+02 0. 9.
      24    2    8    0    0    0  5.3128056902E+01  2.4464019965E+02  1.9970575354E+02  3.3018628336E+02  8.0431188000E+01 0. 9.
     -11    1   11    0    0    0  1.5106950736E+01  5.6955223958E+01 -5.7239491124E+01  8.2149113452E+01  5.1000000000E-04 0. 9.
      12    1   11    0    0    0  5.3968707514E+01 -1.3384508297E+01 -4.7797722699E+01  7.3323862066E+01  0.0000000000E+00 0. 9.
      11    1   12    0    0    0 -1.6158433393E+01 -1.5331072424E+02 -1.5315937745E+02  2.1730869296E+02  5.1000000000E-04 0. 9.
     -12    1   12    0    0    0  2.2382946314E+01 -1.0571072945E+02 -3.7892843297E+01  1.1450599189E+02  0.0000000000E+00 0. 9.
     -15    1   15    0    0    0  4.1451364669E-01  9.7000553166E+01  1.2002011586E+02  1.5432843249E+02  1.7770000000E+00 0. 9.
      16    1   15    0    0    0  5.2713543255E+01  1.4763964649E+02  7.9685637681E+01  1.7585785086E+02  0.0000000000E+00 0. 9.
</event>
<event>
    18   244  1.000000E+00  1.016971E+03  7.978789E-03  9.255442E-02
      21   -1    0    0  101  102  0.0000000000E+00  0.0000000000E+00  1.7066524079E+03  1.7066524079E+03  0.0000000000E+00 0. 9.
      21   -1    0    0  103  104  0.0000000000E+00  0.0000000000E+00 -6.1010770794E+02  6.1010770794E+02  0.0000000000E+00 0. 9.
 1000021    2    1    2  103  102  5.3000294445E+02  7.1000757740E+01  6.4333059862E+02  1.2033720353E+03  8.6503512500E+02 0. 9.
 1000021    2    1    2  101  104 -5.3000294445E+02 -7.1000757740E+01  4.5321410131E+02  1.1133880805E+03  8.6503512500E+02 0. 9.
 1000023    2    3    0    0    0  4.7286608454E+01 -1.1337335103E+02  5.2017718211E+02  5.9831192303E+02  2.6889276000E+02 0. 9.
       2    1    3    0  103    0 -3.0296360403E+01 -2.3216197504E+01  1.5856523314E+01  4.1332789790E+01  3.3000000000E-01 0. 9.
      -2    1    3    0    0  102  5.1301269639E+02  2.0759030627E+02  1.0729689320E+02  5.6372732248E+02  3.3000000000E-01 0. 9.
 1000024    2    4    0    0    0 -4.0545950238E+02 -2.3623117116E+02  4.4102284089E+02  6.9791385166E+02  2.6903535800E+02 0. 9.
      -4    1    4    0    0  104  1.1127256889E+02  9.7498754378E+01 -6.0102954883E+01  1.5969410408E+02  1.5000000000E+00 0. 9.
       3    1    4    0  101    0 -2.3581601096E+02  6.7731659042E+01  7.2294215306E+01  2.5578012477E+02  5.0000000000E-01 0. 9.
 1000022    1    5    0    0    0  4.8428902180E+01 -4.1200680053E+01  1.9941787350E+02  2.4584838704E+02  1.2896157000E+02 0. 9.
      25    2    5    0    0    0 -1.1422937257E+00 -7.2172670976E+01  3.2075930862E+02  3.5246353599E+02  1.2701893900E+02 0. 9.
 1000022    1    8    0    0    0 -1.0044318410E+02 -1.2730296885E+02  1.6997060532E+02  2.6798502257E+02  1.2896157000E+02 0. 9.
      24    2    8    0    0    0 -3.0501631828E+02 -1.0892820231E+02  2.7105223557E+02  4.2992882909E+02  8.0431188000E+01 0. 9.
       5    1   12    0  105    0  1.9382041657E+01 -4.9220544650E+01  3.1965302719E+01  6.1993113588E+01  4.8000000000E+00 0. 9.
      -5    1   12    0    0  105 -2.0524335383E+01 -2.2952126326E+01  2.8879400590E+02  2.9047042240E+02  4.8000000000E+00 0. 9.
      -1    1   14    0    0  106 -2.9046757185E+02 -8.0852496909E+01  2.5243228998E+02  3.9323111077E+02  3.3000000000E-01 0. 9.
       2    1   14    0  106    0 -1.4548746428E+01 -2.8075705398E+01  1.8619945587E+01  3.6697718320E+01  3.3000000000E-01 0. 9.
</event>
<event>
    12   230  1.000000E+00  2.974840E+02  7.867700E-03  1.074741E-01
       1   -1    0    0  101    0  0.0000000000E+00  0.0000000000E+00  9.1545873151E+02  9.1545873151E+02  0.0000000000E+00 0. 9.
      -2   -1    0    0    0  101  0.0000000000E+00  0.0000000000E+00 -1.2508845048E+02  1.2508845048E+02  0.0000000000E+00 0. 9.
 1000023    2    1    2    0    0  1.0871861355E+02 -6.5843227271E+01  1.4713197481E+02  3.3182254580E+02  2.6889276000E+02 0. 9.
-1000024    2    1    2    0    0 -1.0871861355E+02  6.5843227271E+01  6.4323830621E+02  7.0872463619E+02  2.6903535800E+02 0. 9.
 1000022    1    3    0    0    0  3.5432569234E+01 -6.5344733321E+01  5.5269858484E+01  1.5878049291E+02  1.2896157000E+02 0. 9.
      25    2    3    0    0    0  7.3286044315E+01 -4.9849395034E-01  9.1862116328E+01  1.7304205289E+02  1.2701893900E+02 0. 9.
 1000022    1    4    0    0    0 -8.4629404488E+01  1.0331157022E+02  2.9502349393E+02  3.4857619706E+02  1.2896157000E+02 0. 9.
     -24    2    4    0    0    0 -2.4089209061E+01 -3.7468342947E+01  3.4821481228E+02  3.6014843913E+02  8.0431188000E+01 0. 9.
       5    1    6    0  102    0  8.5984223159E+01  1.2512745313E+00  1.1648672280E+02  1.4486907506E+02  4.8000000000E+00 0. 9.
      -5    1    6    0    0  102 -1.2698178844E+01 -1.7497684816E+00 -2.4624606474E+01  2.8172977828E+01  4.8000000000E+00 0. 9.
       3    1    8    0  103    0 -4.1893820597E+01 -2.9682171873E+01  3.2827123327E+02  3.3226251086E+02  5.0000000000E-01 0. 9.
      -4    1    8    0    0  103  1.7804611537E+01 -7.7861710739E+00  1.9943579015E+01  2.7885928277E+01  1.5000000000E+00 0. 9.
</event>
<event>
    12   230  1.000000E+00  2.690493E+02  7.858757E-03  1.089089E-01
      -1   -1    0    0    0  101  0.0000000000E+00  0.0000000000E+00  5.2878895086E+01  5.2878895086E+01  0.0000000000E+00 0. 9.
       2   -1    0    0  101    0  0.0000000000E+00  0.0000000000E+00 -1.4898710422E+03  1.4898710422E+03  0.0000000000E+00 0. 9.
 1000023    2    1    2    0    0 -4.0048274833E+00  5.4599865964E+00 -4.9854646570E+02  5.6647837111E+02  2.6889276000E+02 0. 9.
 1000024    2    1    2    0    0  4.0048274833E+00 -5.4599865964E+00 -9.3844568142E+02  9.7627156618E+02  2.6903535800E+02 0. 9.
 1000022    1    3    0    0    0 -3.6131072815E+01 -4.8045812796E+00 -4.2190599482E+02  4.4267854412E+02  1.2896157000E+02 0. 9.
      23    2    3    0    0    0  3.2126245332E+01  1.0264567876E+01 -7.6640470882E+01  1.2379982699E+02  9.1187600000E+01 0. 9.
 1000022    1    4    0    0    0 -4.9069405081E+01  6.1219917954E+01 -5.6923684402E+02  5.8891201041E+02  1.2896157000E+02 0. 9.
      24    2    4    0    0    0  5.3074232564E+01 -6.6679904550E+01 -3.6920883740E+02  3.8735955577E+02  8.0431188000E+01 0. 9.
      14    1    6    0    0    0 -1.6375828703E+01  5.4000033436E-02  1.3306419299E+01  2.1100508911E+01  0.0000000000E+00 0. 9.
     -14    1    6    0    0    0  4.8502074035E+01  1.0210567843E+01 -8.9946890181E+01  1.0269931808E+02  0.0000000000E+00 0. 9.
      -3    1    8    0    0  102  3.6391608107E+01 -7.1130944612E+01 -3.5779369995E+02  3.6660679501E+02  5.0000000000E-01 0. 9.
       4    1    8    0  102    0  1.6682624458E+01  4.4510400621E+00 -1.1415137447E+01  2.0752760765E+01  1.5000000000E+00 0. 9.
</event>
<event>
    13   259  1.000000E+00  9.316563E+02  7.970767E-03  9.347942E-02
      21   -1    0    0  101  102  0.0000000000E+00  0.0000000000E+00  5.8926060795E+02  5.8926060795E+02  0.0000000000E+00 0. 9.
       2   -1    0    0  102    0  0.0000000000E+00  0.0000000000E+00 -1.9786828043E+03  1.9786828043E+03  0.0000000000E+00 0. 9.
 1000021    2    1    2  101  103 -3.3039162629E+01  3.7577921171E+01 -7.5084006316E+00  8.6651360635E+02  8.6503512500E+02 0. 9.
 2000002    2    1    2  103    0  3.3039162629E+01 -3.7577921171E+01 -1.3819137958E+03  1.7014298059E+03  9.9129912700E+02 0. 9.
 1000024    2    3    0    0    0  2.9795934844E+01 -1.6086598774E+01 -8.6437330594E+01  2.8460149748E+02  2.6903535800E+02 0. 9.
      -2    1    3    0    0  103 -1.5439410710E+02 -1.0903740005E+02 -1.8112103885E+02  2.6178547425E+02  3.3000000000E-01 0. 9.
       1    1    3    0  101    0  9.1559009631E+01  1.6270191999E+02  2.6004996881E+02  3.2012663462E+02  3.3000000000E-01 0. 9.
 1000022    1    4    0    0    0  3.2587565733E+02  2.9364173877E+02 -1.0604089791E+03  1.1547808036E+03  1.2896157000E+02 0. 9.
       2    1    4    0  103    0 -2.9283649470E+02 -3.3121965994E+02 -3.2150481667E+02  5.4664900238E+02  3.3000000000E-01 0. 9.
 1000022    1    5    0    0    0  4.1714427596E+01  6.7575544602E+01 -2.7622221113E+01  1.5395006117E+02  1.2896157000E+02 0. 9.
      24    2    5    0    0    0 -1.1918492752E+01 -8.3662143376E+01 -5.8815109481E+01  1.3065143631E+02  8.0431188000E+01 0. 9.
     -11    1   11    0    0    0 -4.4087267629E+01 -3.3862377749E+01 -1.7104985326E+01  5.8162946255E+01  5.1000000000E-04 0. 9.
      12    1   11    0    0    0  3.2168774877E+01 -4.9799765626E+01 -4.1710124156E+01  7.2488490056E+01  0.0000000000E+00 0. 9.
</event>
<event>
    20   258  1.000000E+00  9.802395E+02  7.975419E-03  9.294054E-02
       2   -1    0    0  101    0  0.0000000000E+00  0.0000000000E+00  1.7216130041E+03  1.7216130041E+03  0.0000000000E+00 0. 9.
      21   -1    0    0  102  101  0.0000000000E+00  0.0000000000E+00 -5.8864506010E+02  5.8864506010E+02  0.0000000000E+00 0. 9.
 1000002    2    1    2  103    0 -5.0786195222E+01 -3.0431061617E+02  8.7071143486E+02  1.3551410909E+03  9.9150632100E+02 0. 9.
 1000021    2    1    2  102  103  5.0786195222E+01  3.0431061617E+02  2.6225650917E+02  9.5511697337E+02  8.6503512500E+02 0. 9.
 1000021    2    3    0  103  104 -5.6388710182E+01 -3.5560933991E+02  8.9708849693E+02  1.2971858880E+03  8.6503512500E+02 0. 9.
       2    1    3    0  104    0  5.6025149601E+00  5.1298723747E+01 -2.6377062070E+01  5.7955202832E+01  3.3000000000E-01 0. 9.
 1000024    2    4    0    0    0 -5.8771531532E+01 -1.4308162674E+02 -5.5803397863E+01  3.1531014557E+02  2.6903535800E+02 0. 9.
      -2    1    4    0    0  103  4.7020640523E+01  1.5086863061E+02  2.9651374803E+02  3.3599523212E+02  3.3000000000E-01 0. 9.
       1    1    4    0  102    0  6.2537086231E+01  2.9652361230E+02  2.1546159000E+01  3.0381159568E+02  3.3000000000E-01 0. 9.
 1000024    2    5    0    0    0  1.6328018874E+02 -1.1417408238E+02  7.0305916705E+02  7.7869657592E+02  2.6903535800E+02 0. 9.
      -4    1    5    0    0  104 -6.0845427263E+01 -1.1772347652E+02  2.7202380364E+02  3.0258913181E+02  1.5000000000E+00 0. 9.
       3    1    5    0  103    0 -1.5882347166E+02 -1.2371178101E+02 -7.7994473759E+01  2.1590018029E+02  5.0000000000E-01 0. 9.
 1000022    1    7    0    0    0 -2.9131845699E+01 -1.3188828805E+02 -1.0661426294E+02  2.1503690975E+02  1.2896157000E+02 0. 9.
      24    2    7    0    0    0 -2.9639685833E+01 -1.1193338692E+01  5.0810865074E+01  1.0027323581E+02  8.0431188000E+01 0. 9.
 1000022    1   10    0    0    0  1.1548072822E+02 -5.1208911982E+01  2.3002772953E+02  2.9240724024E+02  1.2896157000E+02 0. 9.
      24    2   10    0    0    0  4.7799460528E+01 -6.2965170402E+01  4.7303143752E+02  4.8628933568E+02  8.0431188000E+01 0. 9.
      -3    1   14    0    0  105  1.1873136917E+01 -2.0072183860E+01  5.2826406254E+01  5.7747234936E+01  5.0000000000E-01 0. 9.
       4    1   14    0  105    0 -4.1512822750E+01  8.8788451678E+00 -2.0155411793E+00  4.2526000875E+01  1.5000000000E+00 0. 9.
      -1    1   16    0    0  106 -1.3040368733E+01  3.5759957580E+00  1.8589892431E+01  2.2989823030E+01  3.3000000000E-01 0. 9.
       2    1   16    0  106    0  6.0839829261E+01 -6.6541166160E+01  4.5444154509E+02  4.6329951265E+02  3.3000000000E-01 0. 9.
</event>
<event>
    12   230  1.000000E+00  6.876943E+02  7.943093E-03  9.683290E-02
       2   -1    0    0  101    0  0.0000000000E+00  0.0000000000E+00  8.7673913338E+02  8.7673913338E+02  0.0000000000E+00 0. 9.
      -1   -1    0    0    0  101  0.0000000000E+00  0.0000000000E+00 -6.7614263727E+02  6.7614263727E+02  0.0000000000E+00 0. 9.
 1000024    2    1    2    0    0 -6.1235219085E+02 -1.6002047208E+02  4.4945988455E+02  8.2156921120E+02  2.6903535800E+02 0. 9.
 1000023    2    1    2    0    0  6.1235219085E+02  1.6002047208E+02 -2.4886338844E+02  7.3131255945E+02  2.6889276000E+02 0. 9.
 1000022    1    3    0    0    0 -2.0027945810E+02 -1.0922137744E+02  2.0810507082E+02  3.3463409519E+02  1.2896157000E+02 0. 9.
      24    2    3    0    0    0 -4.1207273275E+02 -5.0799094646E+01  2.4135481373E+02  4.8693511602E+02  8.0431188000E+01 0. 9.
 1000022    1    4    0    0    0  3.1415516027E+02  4.0590988691E+01 -1.1437696721E+02  3.6063037899E+02  1.2896157000E+02 0. 9.
      25    2    4    0    0    0  2.9819703058E+02  1.1942948339E+02 -1.3448642123E+02  3.7068218046E+02  1.2701893900E+02 0. 9.
      -1    1    6    0    0  102 -1.6758875298E+02  1.2953273345E+01  1.2076098897E+02  2.0697126074E+02  3.3000000000E-01 0. 9.
       2    1    6    0  102    0 -2.4448397977E+02 -6.3752367991E+01  1.2059382476E+02  2.7996385527E+02  3.3000000000E-01 0. 9.
     -15    1    8    0    0    0  8.0831882040E+01  6.0432203856E+01  1.2524193538E+01  1.0171458878E+02  1.7770000000E+00 0. 9.
      15    1    8    0    0    0  2.1736514854E+02  5.8997279533E+01 -1.4701061477E+02  2.6896759168E+02  1.7770000000E+00 0. 9.
</event>
<event>
    20   258  1.000000E+00  9.641258E+02  7.973902E-03  9.311557E-02
      21   -1    0    0  101  102  0.0000000000E+00  0.0000000000E+00  1.0952914091E+03  1.0952914091E+03  0.0000000000E+00 0. 9.
       1   -1    0    0  102    0  0.0000000000E+00  0.0000000000E+00 -8.5522542385E+02  8.5522542385E+02  0.0000000000E+00 0. 9.
 1000021    2    1    2  101  103 -4.6508188153E+01 -2.4268776584E+02  2.1819915295E+02  9.2571972059E+02  8.6503512500E+02 0. 9.
 1000001    2    1    2  103    0  4.6508188153E+01  2.4268776584E+02  2.1866832309E+01  1.0247971124E+03  9.9431916400E+02 0. 9.
 1000024    2    3    0    0    0 -1.1792410136E+02  1.1059932280E+02  3.6876889730E+01  3.1603517642E+02  2.6903535800E+02 0. 9.
      -4    1    3    0    0  103 -5.2444033700E+00 -1.1605018316E+02  3.0861087622E+02  3.2975456282E+02  1.5000000000E+00 0. 9.
       3    1    3    0  101    0  7.6660316574E+01 -2.3723690548E+02 -1.2728861300E+02  2.7992998135E+02  5.0000000000E-01 0. 9.
 1000021    2    4    0  103  104  9.7801650158E+01  3.0688018734E+02 -3.6876892764E+01  9.2378909111E+02  8.6503512500E+02 0. 9.
       1    1    4    0  104    0 -5.1293462005E+01 -6.4192421493E+01  5.8743725073E+01  1.0100802125E+02  3.3000000000E-01 0. 9.
 1000022    1    5    0    0    0 -1.4082630179E+02  5.6557125387E+01 -2.1993179360E+01  2.0036352508E+02  1.2896157000E+02 0. 9.
      24    2    5    0    0    0  2.2902200433E+01  5.4042197409E+01  5.8870069090E+01  1.1567165134E+02  8.0431188000E+01 0. 9.
 1000024    2    8    0    0    0 -1.0556746718E+02 -5.5902398122E+01 -7.2371738223E+01  3.0312911538E+02  2.6903535800E+02 0. 9.
      -2    1    8    0    0  104  3.4358262821E+02  1.8089348348E+02  1.2903129172E-01  3.8829318861E+02  3.3000000000E-01 0. 9.
       1    1    8    0  103    0 -1.4021351086E+02  1.8188910198E+02  3.5365814167E+01  2.3236678712E+02  3.3000000000E-01 0. 9.
     -11    1   11    0    0    0  4.2267582186E+01  3.1631361343E+01  6.6672061135E+01  8.5042667294E+01  5.1000000000E-04 0. 9.
      12    1   11    0    0    0 -1.9365381754E+01  2.2410836066E+01 -7.8019920451E+00  3.0628984043E+01  0.0000000000E+00 0. 9.
 1000022    1   12    0    0    0 -3.8841502213E+01  3.4629030945E+01 -8.7086742912E+01  1.6408235556E+02  1.2896157000E+02 0. 9.
      24    2   12    0    0    0 -6.6725964970E+01 -9.0531429067E+01  1.4715004689E+01  1.3904675982E+02  8.0431188000E+01 0. 9.
      -1    1   18    0    0  105 -7.9311873458E+01 -8.1568628494E+01  2.9632524696E+01  1.1756704405E+02  3.3000000000E-01 0. 9.
       2    1   18    0  105    0  1.2585908487E+01 -8.9628005732E+00 -1.4917520007E+01  2.1479715774E+01  3.3000000000E-01 0. 9.
</event>
<event>
    23   276  1.000000E+00  1.340010E+03  8.004151E-03  8.975822E-02
       2   -1    0    0  101    0  0.0000000000E+00  0.0000000000E+00  2.4310292255E+03  2.4310292255E+03  0.0000000000E+00 0. 9.
      -2   -1    0    0    0  101  0.0000000000E+00  0.0000000000E+00 -7.6056382363E+02  7.6056382363E+02  0.0000000000E+00 0. 9.
 2000002    2    1    2  102    0  8.3044973367E+02  3.5085867601E+02  1.1061928666E+03  1.7375514922E+03  9.9129912700E+02 0. 9.
-1000002    2    1    2    0  102 -8.3044973367E+02 -3.5085867601E+02  5.6427253530E+02  1.4540415570E+03  9.9150632100E+02 0. 9.
 1000021    2    3    0  102  103  7.2202495599E+02  2.2377340709E+02  8.3938372697E+02  1.4227597771E+03  8.6503512500E+02 0. 9.
       2    1    3    0  103    0  1.0842477768E+02  1.2708526892E+02  2.6680913958E+02  3.1479171504E+02  3.3000000000E-01 0. 9.
-1000024    2    4    0    0    0 -1.0110784091E+03 -1.3668741440E+02  3.9474555456E+02  1.1265731558E+03  2.6903535800E+02 0. 9.
      -1    1    4    0    0  102  1.8062867542E+02 -2.1417126161E+02  1.6952698075E+02  3.2746840120E+02  3.3000000000E-01 0. 9.
 1000024    2    5    0    0    0  5.9541896625E+02  3.0482762413E+02  4.1672103062E+02  8.3275450586E+02  2.6903535800E+02 0. 9.
      -6    2    5    0    0  103  1.8356073311E+02  3.2089038056E+01  1.6607751272E+02  3.0381611105E+02  1.7320000000E+02 0. 9.
       5    1    5    0  102    0 -5.6954743371E+01 -1.1314325509E+02  2.5658518362E+02  2.8618916021E+02  4.8000000000E+00 0. 9.
 1000022    1    7    0    0    0 -2.8573255275E+02 -1.9010249176E+01  8.7311194529E+01  3.2597363774E+02  1.2896157000E+02 0. 9.
     -24    2    7    0    0    0 -7.2534585634E+02 -1.1767716523E+02  3.0743436003E+02  8.0059951802E+02  8.0431188000E+01 0. 9.
 1000022    1    9    0    0    0  2.9253982841E+02  2.0349412612E+02  2.9995578378E+02  4.8331560013E+02  1.2896157000E+02 0. 9.
      24    2    9    0    0    0  3.0287913785E+02  1.0133349801E+02  1.1676524684E+02  3.4943890572E+02  8.0431188000E+01 0. 9.
     -24    2   10    0    0    0  1.5824102010E+02  7.4144095064E+01  1.6660899287E+02  2.5449027443E+02  8.0431188000E+01 0. 9.
      -5    1   10    0    0  103  2.5319713010E+01 -4.2055057008E+01 -5.3148014447E-01  4.9325836618E+01  4.8000000000E+00 0. 9.
       3    1   13    0  104    0 -1.9837669203E+01 -5.5321871892E+00  2.5079787995E+01  3.2455877439E+01  5.0000000000E-01 0. 9.
      -4    1   13    0    0  104 -7.0550818714E+02 -1.1214497804E+02  2.8235457203E+02  7.6814364058E+02  1.5000000000E+00 0. 9.
     -15    1   15    0    0    0  1.4876274881E+02  9.1558839293E+01  5.5355238139E+01  1.8325047504E+02  1.7770000000E+00 0. 9.
      16    1   15    0    0    0  1.5411638904E+02  9.7746587154E+00  6.1410008704E+01  1.6618843068E+02  0.0000000000E+00 0. 9.
       1    1   16    0  105    0  1.2624449800E+02  3.6474611354E+01  7.7412060451E+01  1.5251493878E+02  3.3000000000E-01 0. 9.
      -2    1   16    0    0  105  3.1996522102E+01  3.7669483709E+01  8.9196932414E+01  1.0197533565E+02  3.3000000000E-01 0. 9.
</event>
<event>
    12   273  1.000000E+00  1.146680E+03  7.989806E-03  9.131646E-02
       2   -1    0    0  101    0  0.0000000000E+00  0.0000000000E+00  2.0840726791E+03  2.0840726791E+03  0.0000000000E+00 0. 9.
       1   -1    0    0  102    0  0.0000000000E+00  0.0000000000E+00 -7.2420774676E+02  7.2420774676E+02  0.0000000000E+00 0. 9.
 2000002    2    1    2  102    0  4.4369843096E+02  3.6377873570E+02  1.1832232151E+03  1.6467830465E+03  9.9129912700E+02 0. 9.
 1000001    2    1    2  101    0 -4.4369843096E+02 -3.6377873570E+02  1.7664171724E+02  1.1614973794E+03  9.9431916400E+02 0. 9.
 1000022    1    3    0    0    0  6.0923777849E+02  5.5722819495E+02  1.0947552541E+03  1.3772414766E+03  1.2896157000E+02 0. 9.
       2    1    3    0  102    0 -1.6553934753E+02 -1.9344945925E+02  8.8467961037E+01  2.6954156988E+02  3.3000000000E-01 0. 9.
-1000024    2    4    0    0    0 -5.5814067278E+02 -3.5106531341E+01  4.0880683375E+02  7.4313964390E+02  2.6903535800E+02 0. 9.
       2    1    4    0  101    0  1.1444224182E+02 -3.2867220436E+02 -2.3216511651E+02  4.1835773550E+02  3.3000000000E-01 0. 9.
 1000022    1    7    0    0    0 -2.0414299906E+02 -3.1361672401E+01  2.4308895024E+02  3.4406575363E+02  1.2896157000E+02 0. 9.
     -24    2    7    0    0    0 -3.5399767372E+02 -3.7448589399E+00  1.6571788352E+02  3.9907389026E+02  8.0431188000E+01 0. 9.
       1    1   10    0  103    0 -6.3243954326E+01  9.9825277567E+00 -2.0198382925E-01  6.4028105677E+01  3.3000000000E-01 0. 9.
      -2    1   10    0    0  103 -2.9075371940E+02 -1.3727386697E+01  1.6591986735E+02  3.3504578459E+02  3.3000000000E-01 0. 9.
</event>
<event>
    12   230  1.000000E+00  2.802499E+02  7.862386E-03  1.083218E-01
      -2   -1    0    0    0  101  0.0000000000E+00  0.0000000000E+00  8.8946921718E+01  8.8946921718E+01  0.0000000000E+00 0. 9.
       1   -1    0    0  101    0  0.0000000000E+00  0.0000000000E+00 -8.8299854216E+02  8.8299854216E+02  0.0000000000E+00 0. 9.
-1000024    2    1    2    0    0  2.6927770875E+01  7.3981283151E+01 -3.9705187014E+02  4.8603348294E+02  2.6903535800E+02 0. 9.
 1000023    2    1    2    0    0 -2.6927770875E+01 -7.3981283151E+01 -3.9699975030E+02  4.8591198094E+02  2.6889276000E+02 0. 9.
 1000022    1    3    0    0    0 -5.6979697853E+01  4.0443704298E+01 -2.8783919558E+02  3.2305551881E+02  1.2896157000E+02 0. 9.
     -24    2    3    0    0    0  8.3907468728E+01  3.3537578853E+01 -1.0921267456E+02  1.6297796413E+02  8.0431188000E+01 0. 9.
 1000022    1    4    0    0    0  4.7646643368E+00 -1.6923208433E+00 -2.0972529586E+02  2.4625464917E+02  1.2896157000E+02 0. 9.
      25    2    4    0    0    0 -3.1692435211E+01 -7.2288962308E+01 -1.8727445444E+02  2.3965733177E+02  1.2701893900E+02 0. 9.
       3    1    6    0  102    0  7.3466315661E+01  6.1541091361E+00 -1.1136150564E+02  1.3355451147E+02  5.0000000000E-01 0. 9.
      -4    1    6    0    0  102  1.0441153067E+01  2.7383469717E+01  2.1488310818E+00  2.9423452654E+01  1.5000000000E+00 0. 9.
       5    1    8    0  103    0  4.2568296070E+01 -7.8963504418E+00 -9.6071560648E+01  1.0548552956E+02  4.8000000000E+00 0. 9.
      -5    1    8    0    0  103 -7.4260731281E+01 -6.4392611866E+01 -9.1202893791E+01  1.3417180221E+02  4.8000000000E+00 0. 9.
</event>
<event>
    12   230  1.000000E+00  2.721304E+02  7.859770E-03  1.087444E-01
      -1   -1    0    0    0  101  0.0000000000E+00  0.0000000000E+00  1.3137332718E+02  1.3137332718E+02  0.0000000000E+00 0. 9.
       2   -1    0    0  101    0  0.0000000000E+00  0.0000000000E+00 -1.0842958272E+03  1.0842958272E+03  0.0000000000E+00 0. 9.
 1000023    2    1    2    0    0 -1.7356949915E+01  3.7577200093E+01 -5.5222304213E+01  2.7760786902E+02  2.6889276000E+02 0. 9.
 1000024    2    1    2    0    0  1.7356949915E+01 -3.7577200093E+01 -8.9770019585E+02  9.3806128540E+02  2.6903535800E+02 0. 9.
 1000022    1    3    0    0    0 -3.4071035619E+01  1.8140928782E+01 -6.1237151560E+01  1.4788848513E+02  1.2896157000E+02 0. 9.
      25    2    3    0    0    0  1.6714085704E+01  1.9436271310E+01  6.0148473469E+00  1.2971938389E+02  1.2701893900E+02 0. 9.
 1000022    1    4    0    0    0 -5.8200645700E+01 -2.0913008913E+01 -3.3263295511E+02  3.6207794529E+02  1.2896157000E+02 0. 9.
      24    2    4    0    0    0  7.5557595615E+01 -1.6664191180E+01 -5.6506724074E+02  5.7598334011E+02  8.0431188000E+01 0. 9.
       5    1    6    0  102    0  5.8576689015E+01 -4.5678087659E+00 -3.2928742080E+01  6.7523591639E+01  4.8000000000E+00 0. 9.
      -5    1    6    0    0  102 -4.1862603310E+01  2.4004080076E+01  3.8943589427E+01  6.2195792251E+01  4.8000000000E+00 0. 9.
     -15    1    8    0    0    0  8.3778221972E+01 -2.9572049849E+01 -5.3409256712E+02  5.4143450628E+02  1.7770000000E+00 0. 9.
      16    1    8    0    0    0 -8.2206263567E+00  1.2907858669E+01 -3.0974673625E+01  3.4548833834E+01  0.0000000000E+00 0. 9.
</event>
<event>
    24   259  1.000000E+00  9.710982E+02  7.974561E-03  9.303940E-02
       2   -1    0    0  101    0  0.0000000000E+00  0.0000000000E+00  2.0037906155E+03  2.0037906155E+03  0.0000000000E+00 0. 9.
      21   -1    0    0  102  101  0.0000000000E+00  0.0000000000E+00 -4.8846044877E+02  4.8846044877E+02  0.0000000000E+00 0. 9.
 2000002    2    1    2  103    0  9.3845911583E+01 -2.6219222158E+02  5.5348816837E+02  1.1690059572E+03  9.9129912700E+02 0. 9.
 1000021    2    1    2  102  103 -9.3845911583E+01  2.6219222158E+02  9.6184199836E+02  1.3232451071E+03  8.6503512500E+02 0. 9.
 1000021    2    3    0  103  104  1.0334134761E+02 -3.2218421264E+02  5.8782769597E+02  1.0992312171E+03  8.6503512500E+02 0. 9.
       2    1    3    0  104    0 -9.4954360282E+00  5.9991991061E+01 -3.4339527598E+01  6.9774740075E+01  3.3000000000E-01 0. 9.
-1000024    2    4    0    0    0 -2.9367898839E+02  2.6459414830E+02  4.0706368603E+02  6.2796359757E+02  2.6903535800E+02 0. 9.
       4    1    4    0  102    0  2.1835870116E+02  4.3854309239E+01  1.1125034455E+02  2.4896307352E+02  1.5000000000E+00 0. 9.
      -3    1    4    0    0  103 -1.8525624361E+01 -4.6256235966E+01  4.4352796778E+02  4.4631843601E+02  5.0000000000E-01 0. 9.
-1000024    2    5    0    0    0  1.4937830339E+02  9.7122796116E+01  4.4656742085E+02  5.5095299279E+02  2.6903535800E+02 0. 9.
       6    2    5    0  103    0 -6.9012682270E+01 -4.4515546345E+02  9.7631400086E+01  4.9239848419E+02  1.7320000000E+02 0. 9.
      -5    1    5    0    0  104  2.2975726494E+01  2.5848454694E+01  4.3628875034E+01  5.5879740110E+01  4.8000000000E+00 0. 9.
 1000022    1    7    0    0    0 -1.2222013717E+02  1.2195119216E+02  2.9601610812E+02  3.6615089513E+02  1.2896157000E+02 0. 9.
     -24    2    7    0    0    0 -1.7145885122E+02  1.4264295614E+02  1.1104757791E+02  2.6181270244E+02  8.0431188000E+01 0. 9.
 1000022    1   10    0    0    0  1.3111211610E+02  1.3863914057E+02  3.1487255658E+02  3.9011153753E+02  1.2896157000E+02 0. 9.
     -24    2   10    0    0    0  1.8266187286E+01 -4.1516344451E+01  1.3169486427E+02  1.6084145527E+02  8.0431188000E+01 0. 9.
      24    2   11    0    0    0  1.8624597787E+01 -1.1948750205E+02  3.3977564479E+01  1.4915692971E+02  8.0431188000E+01 0. 9.
       5    1   11    0  103    0 -8.7637280057E+01 -3.2566796140E+02  6.3653835607E+01  3.4324155448E+02  4.8000000000E+00 0. 9.
      15    1   14    0    0    0 -1.5251628112E+02  1.0861364440E+02  5.8039780768E+01  1.9603549076E+02  1.7770000000E+00 0. 9.
     -16    1   14    0    0    0 -1.8942570104E+01  3.4029311735E+01  5.3007797140E+01  6.5777211684E+01  0.0000000000E+00 0. 9.
       3    1   16    0  105    0  4.7377418201E+00 -1.9802501763E+01 -5.6415904665E+00  2.1134398895E+01  5.0000000000E-01 0. 9.
      -4    1   16    0    0  105  1.3528445466E+01 -2.1713842687E+01  1.3733645474E+02  1.3970705637E+02  1.5000000000E+00 0. 9.
      -3    1   17    0    0  106  3.8158573692E+01 -2.6111235971E+01  2.6877156686E+01  5.3483688557E+01  5.0000000000E-01 0. 9.
       4    1   17    0  106    0 -1.9533975905E+01 -9.3376266077E+01  7.1004077922E+00  9.5673241149E+01  1.5000000000E+00 0. 9.
</event>
<event>
    18   272  1.000000E+00  9.924526E+02  7.976553E-03  9.281022E-02
       1   -1    0    0  101    0  0.0000000000E+00  0.0000000000E+00  5.3732414096E+02  5.3732414096E+02  0.0000000000E+00 0. 9.
       2   -1    0    0  102    0  0.0000000000E+00  0.0000000000E+00 -2.0762456639E+03  2.0762456639E+03  0.0000000000E+00 0. 9.
 2000001    2    1    2  102    0  2.9597710897E+01  3.1766631800E+01 -1.2168075505E+03  1.5703457092E+03  9.9170554500E+02 0. 9.
 2000002    2    1    2  101    0 -2.9597710897E+01 -3.1766631800E+01 -3.2211397244E+02  1.0432240957E+03  9.9129912700E+02 0. 9.
 1000021    2    3    0  102  103  1.2031668930E+02  7.4670029020E+01 -9.8973595305E+02  1.3220872676E+03  8.6503512500E+02 0. 9.
       1    1    3    0  103    0 -9.0718978398E+01 -4.2903397220E+01 -2.2707159746E+02  2.4825844156E+02  3.3000000000E-01 0. 9.
 1000021    2    4    0  101  104 -9.3116036756E+01 -6.7836550831E+01 -3.7822840777E+02  9.5111244859E+02  8.6503512500E+02 0. 9.
       2    1    4    0  104    0  6.3518325859E+01  3.6069919031E+01  5.6114435329E+01  9.2111647098E+01  3.3000000000E-01 0. 9.
 1000023    2    5    0    0    0 -2.0418992767E+02  1.1222854679E+02 -6.9888950174E+02  7.8424398327E+02  2.6889276000E+02 0. 9.
       1    1    5    0  102    0  2.8604523158E+02 -1.4209014399E+02 -1.3610431839E+02  3.4718291708E+02  3.3000000000E-01 0. 9.
      -1    1    5    0    0  103  3.8461385389E+01  1.0453162622E+02 -1.5474213292E+02  1.9066036727E+02  3.3000000000E-01 0. 9.
 1000022    1    7    0    0    0 -1.3667021709E+02 -2.4779694370E+02  1.8034010919E+02  3.5949369267E+02  1.2896157000E+02 0. 9.
       3    1    7    0  101    0  1.0347154258E+01  8.7094433729E+01 -3.5127288969E+02  3.6205717369E+02  5.0000000000E-01 0. 9.
      -3    1    7    0    0  104  3.3207026081E+01  9.2865959141E+01 -2.0729562727E+02  2.2956158223E+02  5.0000000000E-01 0. 9.
 1000022    1    9    0    0    0 -5.3804333661E+01  3.4409967019E+01 -2.9631867415E+02  3.2941583953E+02  1.2896157000E+02 0. 9.
      25    2    9    0    0    0 -1.5038559401E+02  7.7818579768E+01 -4.0257082760E+02  4.5482814374E+02  1.2701893900E+02 0. 9.
      21    1   16    0  105  106 -1.3510998275E+02  9.6740392111E+01 -3.9627805344E+02  4.2970886253E+02  0.0000000000E+00 0. 9.
      21    1   16    0  106  105 -1.5275611262E+01 -1.8921812343E+01 -6.2927741589E+00  2.5119281208E+01  0.0000000000E+00 0. 9.
</event>
<event>
    19   271  1.000000E+00  1.051382E+03  7.981840E-03  9.220789E-02
       2   -1    0    0  101    0  0.0000000000E+00  0.0000000000E+00  1.1761359371E+03  1.1761359371E+03  0.0000000000E+00 0. 9.
       2   -1    0    0  102    0  0.0000000000E+00  0.0000000000E+00 -9.4236622797E+02  9.4236622797E+02  0.0000000000E+00 0. 9.
 1000002    2    1    2  101    0 -2.1017615756E+02 -2.7954646318E+02  1.7149319308E+02  1.0652769321E+03  9.9150632100E+02 0. 9.
 1000002    2    1    2  102    0  2.1017615756E+02  2.7954646318E+02  6.2276516061E+01  1.0532252329E+03  9.9150632100E+02 0. 9.
 1000024    2    3    0    0    0  2.6937977596E+02  2.4488259525E+01  2.9733437185E+02  4.8368676960E+02  2.6903535800E+02 0. 9.
       1    1    3    0  101    0 -4.7955593352E+02 -3.0403472271E+02 -1.2584117877E+02  5.8159016253E+02  3.3000000000E-01 0. 9.
 1000021    2    4    0  102  103  1.3080201793E+02  2.1148273802E+02 -4.7887913297E+01  9.0133963415E+02  8.6503512500E+02 0. 9.
       2    1    4    0  103    0  7.9374139630E+01  6.8063725164E+01  1.1016442936E+02  1.5188559879E+02  3.3000000000E-01 0. 9.
 1000022    1    5    0    0    0  3.8868705892E+01  2.5510595830E+00  1.2742755669E+02  1.8543503699E+02  1.2896157000E+02 0. 9.
      24    2    5    0    0    0  2.3051107007E+02  2.1937199942E+01  1.6990681516E+02  2.9825173261E+02  8.0431188000E+01 0. 9.
-1000024    2    7    0    0    0  1.1838997801E+02  3.7009180337E+01  2.9390471734E+02  4.1730788760E+02  2.6903535800E+02 0. 9.
       4    1    7    0  102    0 -1.1053701038E+02  5.5175465044E-01 -1.9887214120E+02  2.2753266500E+02  1.5000000000E+00 0. 9.
      -3    1    7    0    0  103  1.2294905029E+02  1.7392180303E+02 -1.4292048944E+02  2.5649908156E+02  5.0000000000E-01 0. 9.
      -1    1   10    0    0  104  2.2703687895E+02  3.2703674690E+01  1.7204784785E+02  2.8673305632E+02  3.3000000000E-01 0. 9.
       2    1   10    0  104    0  3.4741911219E+00 -1.0766474748E+01 -2.1410326882E+00  1.1518676288E+01  3.3000000000E-01 0. 9.
 1000022    1   11    0    0    0  7.2268705335E+01 -2.3015197950E+01  2.6306473055E+02  3.0263278755E+02  1.2896157000E+02 0. 9.
     -24    2   11    0    0    0  4.6121272676E+01  6.0024378288E+01  3.0839986795E+01  1.1467510005E+02  8.0431188000E+01 0. 9.
       3    1   17    0  105    0  5.1777439917E+01  1.7160804391E+01 -9.6793893221E+00  5.5401598075E+01  5.0000000000E-01 0. 9.
      -4    1   17    0    0  105 -5.6561672404E+00  4.2863573896E+01  4.0519376117E+01  5.9273501971E+01  1.5000000000E+00 0. 9.
</event>
<event>
    20   259  1.000000E+00  1.014527E+03  7.978569E-03  9.257958E-02
      21   -1    0    0  101  102  0.0000000000E+00  0.0000000000E+00  1.2271885329E+03  1.2271885329E+03  0.0000000000E+00 0. 9.
       2   -1    0    0  102    0  0.0000000000E+00  0.0000000000E+00 -9.6997265294E+02  9.6997265294E+02  0.0000000000E+00 0. 9.
 1000021    2    1    2  101  103  2.8044417468E+02  2.9178181736E+02  5.2999827546E+02  1.0922314331E+03  8.6503512500E+02 0. 9.
 2000002    2    1    2  103    0 -2.8044417468E+02 -2.9178181736E+02 -2.7278239546E+02  1.1049297528E+03  9.9129912700E+02 0. 9.
 1000024    2    3    0    0    0  2.6393526175E+02  2.5796814317E+02  1.5715995788E+02  4.8299964959E+02  2.6903535800E+02 0. 9.
      -4    1    3    0    0  103 -2.3594393765E+01  1.8542452799E+02 -1.8305689558E+01  1.8781985856E+02  1.5000000000E+00 0. 9.
       3    1    3    0  101    0  4.0103306691E+01 -1.5161085381E+02  3.9114400714E+02  4.2141192499E+02  5.0000000000E-01 0. 9.
 1000021    2    4    0  103  104 -2.0332158976E+02 -3.0743896286E+02 -1.4010675870E+02  9.5067031934E+02  8.6503512500E+02 0. 9.
       2    1    4    0  104    0 -7.7122584917E+01  1.5657145502E+01 -1.3267563675E+02  1.5425943342E+02  3.3000000000E-01 0. 9.
 1000022    1    5    0    0    0  2.4024407917E+02  2.5283265618E+02  1.1650612697E+02  3.8967465117E+02  1.2896157000E+02 0. 9.
      24    2    5    0    0    0  2.3691182581E+01  5.1354869923E+00  4.0653830910E+01  9.3324998417E+01  8.0431188000E+01 0. 9.
 1000024    2    8    0    0    0  2.6945147155E+01 -2.4880292180E+02  2.0922863386E+02  4.2283043875E+02  2.6903535800E+02 0. 9.
      -4    1    8    0    0  104 -2.9855331960E+01 -1.5421921146E+02 -7.2643217038E+01  1.7307279686E+02  1.5000000000E+00 0. 9.
       3    1    8    0  103    0 -2.0041140496E+02  9.5583170397E+01 -2.7669217553E+02  3.5476708373E+02  5.0000000000E-01 0. 9.
      -3    1   11    0    0  105  3.9833682448E+01 -1.9271436018E+01  4.5675365891E+01  6.3597166233E+01  5.0000000000E-01 0. 9.
       4    1   11    0  105    0 -1.6142499867E+01  2.4406923010E+01 -5.0215349811E+00  2.9727832184E+01  1.5000000000E+00 0. 9.
 1000022    1   12    0    0    0  1.6263963392E+01 -2.3453785739E+02  2.0976297972E+02  3.4044693750E+02  1.2896157000E+02 0. 9.
      24    2   12    0    0    0  1.0681183763E+01 -1.4265064402E+01 -5.3434585720E-01  8.2383501246E+01  8.0431188000E+01 0. 9.
     -11    1   18    0    0    0  4.7428445395E+00  4.5993210351E+00 -3.8773754315E+01  3.9332586391E+01  5.1000000000E-04 0. 9.
      12    1   18    0    0    0  5.9383392236E+00 -1.8864385437E+01  3.8239408458E+01  4.3050914855E+01  0.0000000000E+00 0. 9.
</event>
<event>
    12   230  1.000000E+00  3.255331E+02  7.875738E-03  1.062190E-01
       2   -1    0    0  101    0  0.0000000000E+00  0.0000000000E+00  1.6267172813E+02  1.6267172813E+02  0.0000000000E+00 0. 9.
      -1   -1    0    0    0  101  0.0000000000E+00  0.0000000000E+00 -6.8242042156E+02  6.8242042156E+02  0.0000000000E+00 0. 9.
 1000024    2    1    2    0    0  1.6833781574E+02 -7.2749707044E+01 -1.6989667552E+02  3.6725337887E+02  2.6903535800E+02 0. 9.
 1000023    2    1    2    0    0 -1.6833781574E+02  7.2749707044E+01 -3.4985201791E+02  4.7783877082E+02  2.6889276000E+02 0. 9.
 1000022    1    3    0    0    0  1.1666399164E+02  3.3221883293E+01 -5.9357761455E+01  1.8673138691E+02  1.2896157000E+02 0. 9.
      24    2    3    0    0    0  5.1673824101E+01 -1.0597159034E+02 -1.1053891406E+02  1.8052199196E+02  8.0431188000E+01 0. 9.
 1000022    1    4    0    0    0 -1.2884585658E+02  4.9670444352E+01 -1.8098210296E+02  2.6163718377E+02  1.2896157000E+02 0. 9.
      25    2    4    0    0    0 -3.9491959154E+01  2.3079262692E+01 -1.6886991495E+02  2.1620158705E+02  1.2701893900E+02 0. 9.
      -1    1    6    0    0  102  1.4201515955E+01 -1.0371262664E+02 -8.7829668773E+01  1.3664608153E+02  3.3000000000E-01 0. 9.
       2    1    6    0  102    0  3.7472308146E+01 -2.2589636990E+00 -2.2709245291E+01  4.3875910434E+01  3.3000000000E-01 0. 9.
       5    1    8    0  103    0 -1.0363369997E+01  7.4293413930E+01 -8.3317065124E+01  1.1221267367E+02  4.8000000000E+00 0. 9.
      -5    1    8    0    0  103 -2.9128589158E+01 -5.1214151238E+01 -8.5552849824E+01  1.0398891338E+02  4.8000000000E+00 0. 9.
</event>
<event>
    12   226  1.000000E+00  2.913221E+02  7.865835E-03  1.077699E-01
      -2   -1    0    0    0  101  0.0000000000E+00  0.0000000000E+00  8.8717750425E+01  8.8717750425E+01  0.0000000000E+00 0. 9.
       2   -1    0    0  101    0  0.0000000000E+00  0.0000000000E+00 -1.1674767748E+03  1.1674767748E+03  0.0000000000E+00 0. 9.
-1000024    2    1    2    0    0 -4.7914279450E+01 -1.0095918213E+02 -2.7244562858E+02  3.9886737021E+02  2.6903535800E+02 0. 9.
 1000024    2    1    2    0    0  4.7914279450E+01  1.0095918213E+02 -8.0631339576E+02  8.5732715498E+02  2.6903535800E+02 0. 9.
 1000022    1    3    0    0    0 -5.3494908182E+00 -1.4099408841E+02 -1.6540403925E+02  2.5277961302E+02  1.2896157000E+02 0. 9.
     -24    2    3    0    0    0 -4.2564788631E+01  4.0034906283E+01 -1.0704158933E+02  1.4608775719E+02  8.0431188000E+01 0. 9.
 1000022    1    4    0    0    0  6.6880175231E+01  1.2623877904E+02 -4.2818112341E+02  4.6944578830E+02  1.2896157000E+02 0. 9.
      24    2    4    0    0    0 -1.8965895781E+01 -2.5279596905E+01 -3.7813227235E+02  3.8788136668E+02  8.0431188000E+01 0. 9.
       3    1    6    0  102    0 -7.7999251305E+00  5.6580254792E+01 -8.2718106755E+01  1.0052213313E+02  5.0000000000E-01 0. 9.
      -4    1    6    0    0  102 -3.4764863501E+01 -1.6545348508E+01 -2.4323482577E+01  4.5565624062E+01  1.5000000000E+00 0. 9.
      -1    1    8    0    0  103  2.7206436606E+01 -2.1783609060E+01 -9.9511811243E+01  1.0543920188E+02  3.3000000000E-01 0. 9.
       2    1    8    0  103    0 -4.6172332388E+01 -3.4959878450E+00 -2.7862046111E+02  2.8244216480E+02  3.3000000000E-01 0. 9.
</event>
<event>
    15   276  1.000000E+00  1.133297E+03  7.988728E-03  9.143607E-02
       2   -1    0    0  101    0  0.0000000000E+00  0.0000000000E+00  2.3778599006E+03  2.3778599006E+03  0.0000000000E+00 0. 9.
      -4   -1    0    0    0  101  0.0000000000E+00  0.0000000000E+00 -5.8506247053E+02  5.8506247053E+02  0.0000000000E+00 0. 9.
 2000002    2    1    2  102    0  5.4215713786E+02 -8.6877279550E+01  1.3068703926E+03  1.7297590023E+03  9.9129912700E+02 0. 9.
-1000004    2    1    2    0  102 -5.4215713786E+02  8.6877279550E+01  4.8592703744E+02  1.2331633688E+03  9.9150632100E+02 0. 9.
 1000022    1    3    0    0    0 -1.7748217359E+02 -1.0503784495E+02  6.3741530279E+00  2.4331992762E+02  1.2896157000E+02 0. 9.
       2    1    3    0  102    0  7.1963931145E+02  1.8160565404E+01  1.3004962396E+03  1.4864390747E+03  3.3000000000E-01 0. 9.
 1000021    2    4    0  103  102 -5.2369645588E+02  1.8061693381E+02  3.9285124245E+02  1.0997719404E+03  8.6503512500E+02 0. 9.
      -4    1    4    0    0  103 -1.8460681983E+01 -9.3739654260E+01  9.3075794990E+01  1.3339142841E+02  1.5000000000E+00 0. 9.
-1000024    2    7    0    0    0 -8.2834082492E+01  1.5426480192E+02  8.6746892354E+01  3.3251189681E+02  2.6903535800E+02 0. 9.
       2    1    7    0  103    0 -2.6108817066E+02  2.8451815685E+02  2.0259479604E+02  4.3607611115E+02  3.3000000000E-01 0. 9.
      -1    1    7    0    0  102 -1.7977420273E+02 -2.5816602496E+02  1.0350955406E+02  3.3118393242E+02  3.3000000000E-01 0. 9.
 1000022    1    9    0    0    0  3.9411904778E+01  6.6699078114E+01  4.2617488639E+01  1.5636304594E+02  1.2896157000E+02 0. 9.
     -24    2    9    0    0    0 -1.2224598727E+02  8.7565723807E+01  4.4129403715E+01  1.7614885088E+02  8.0431188000E+01 0. 9.
       1    1   13    0  104    0 -1.2251868395E+02  9.7927548300E+01  3.1799301003E+01  1.6003729902E+02  3.3000000000E-01 0. 9.
      -2    1   13    0    0  104  2.7269668035E-01 -1.0361824494E+01  1.2330102712E+01  1.6111551856E+01  3.3000000000E-01 0. 9.
</event>
<event>
    12   276  1.000000E+00  1.001721E+03  7.977405E-03  9.271262E-02
       2   -1    0    0  101    0  0.0000000000E+00  0.0000000000E+00  3.1345423410E+03  3.1345423410E+03  0.0000000000E+00 0. 9.
      -1   -1    0    0    0  101  0.0000000000E+00  0.0000000000E+00 -4.2636610578E+02  4.2636610578E+02  0.0000000000E+00 0. 9.
 1000002    2    1    2  102    0 -1.9721916686E+01  1.4061892348E+02  2.2427511678E+03  2.4562532893E+03  9.9150632100E+02 0. 9.
-2000001    2    1    2    0  102  1.9721916686E+01 -1.4061892348E+02  4.6542506736E+02  1.1046551575E+03  9.9170554500E+02 0. 9.
 1000023    2    3    0    0    0  3.8306546993E+02  6.5747168863E+01  6.0324663015E+02  7.6633651723E+02  2.6889276000E+02 0. 9.
       2    1    3    0  102    0 -4.0278738661E+02  7.4871754615E+01  1.6395045377E+03  1.6899167720E+03  3.3000000000E-01 0. 9.
 1000022    1    4    0    0    0 -5.4887712700E+01  3.0558393691E+02  5.4981408575E+02  6.4445389201E+02  1.2896157000E+02 0. 9.
      -1    1    4    0    0  102  7.4609629386E+01 -4.4620286038E+02 -8.4389018397E+01  4.6020126547E+02  3.3000000000E-01 0. 9.
 1000022    1    5    0    0    0  2.5634297491E+02  5.7150803315E+01  3.5841181287E+02  4.6267488504E+02  1.2896157000E+02 0. 9.
      25    2    5    0    0    0  1.2672249502E+02  8.5963655474E+00  2.4483481728E+02  3.0366163219E+02  1.2701893900E+02 0. 9.
       5    1   10    0  103    0 -1.3330251523E+01 -5.6860498505E+00 -5.6566045618E+00  1.6280784494E+01  4.8000000000E+00 0. 9.
      -5    1   10    0    0  103  1.4005274654E+02  1.4282415398E+01  2.5049142184E+02  2.8738084769E+02  4.8000000000E+00 0. 9.
</event>
<event>
    26   272  1.000000E+00  1.009276E+03  7.978093E-03  9.263388E-02
       1   -1    0    0  101    0  0.0000000000E+00  0.0000000000E+00  1.9790173854E+03  1.9790173854E+03  0.0000000000E+00 0. 9.
       2   -1    0    0  102    0  0.0000000000E+00  0.0000000000E+00 -6.2430790093E+02  6.2430790093E+02  0.0000000000E+00 0. 9.
 2000001    2    1    2  102    0  5.6647642327E+01  1.7986882481E+02  1.2228229902E+03  1.5856663277E+03  9.9170554500E+02 0. 9.
 2000002    2    1    2  101    0 -5.6647642327E+01 -1.7986882481E+02  1.3188649429E+02  1.0176589586E+03  9.9129912700E+02 0. 9.
 1000021    2    3    0  102  103  1.6393402125E+02  1.9149076661E+02  1.0753815058E+03  1.4029519691E+03  8.6503512500E+02 0. 9.
       1    1    3    0  103    0 -1.0728637892E+02 -1.1621941800E+01  1.4744148443E+02  1.8271435867E+02  3.3000000000E-01 0. 9.
 1000021    2    4    0  101  104 -1.2684431470E+02 -6.8831650695E+01  1.2758522877E+02  8.8622290333E+02  8.6503512500E+02 0. 9.
       2    1    4    0  104    0  7.0196672369E+01 -1.1103717412E+02  4.3012655186E+00  1.3143605530E+02  3.3000000000E-01 0. 9.
 1000023    2    5    0    0    0  9.4931884883E+01 -6.6980711876E+01  6.1418255613E+02  6.8045720451E+02  2.6889276000E+02 0. 9.
       3    1    5    0  102    0 -1.5386051326E+02  1.6455481891E+02  2.8875354871E+01  2.2712415566E+02  5.0000000000E-01 0. 9.
      -3    1    5    0    0  103  2.2286264963E+02  9.3916659578E+01  4.3232359478E+02  4.9537060889E+02  5.0000000000E-01 0. 9.
 1000024    2    7    0    0    0  5.1442756780E+00 -1.8603161675E+02 -1.6164350295E+02  3.6488747841E+02  2.6903535800E+02 0. 9.
      -6    2    7    0    0  104  2.4747305433E+01  1.1751150903E+02  2.2539848964E+01  2.1196147922E+02  1.7320000000E+02 0. 9.
       5    1    7    0  101    0 -1.5673589581E+02 -3.1154297756E-01  2.6668888276E+02  3.0937394570E+02  4.8000000000E+00 0. 9.
 1000022    1    9    0    0    0  4.5905625880E+01 -1.1419858085E+02  3.9990691253E+02  4.3784160102E+02  1.2896157000E+02 0. 9.
      23    2    9    0    0    0  4.9026259003E+01  4.7217868975E+01  2.1427564360E+02  2.4261560349E+02  9.1187600000E+01 0. 9.
 1000022    1   12    0    0    0 -4.7513261152E+01 -1.7834138355E+02 -8.1362196721E+01  2.3940353520E+02  1.2896157000E+02 0. 9.
      24    2   12    0    0    0  5.2657536830E+01 -7.6902331940E+00 -8.0281306233E+01  1.2548394322E+02  8.0431188000E+01 0. 9.
     -24    2   13    0    0    0 -3.9303603856E+01  2.4985761317E+01  3.3499122757E+01  9.8794882323E+01  8.0431188000E+01 0. 9.
      -5    1   13    0    0  104  6.4050909289E+01  9.2525747712E+01 -1.0959273792E+01  1.1316659689E+02  4.8000000000E+00 0. 9.
      12    1   16    0    0    0  6.7007365545E+00  6.6167665534E+01  1.4101440343E+02  1.5591062121E+02  0.0000000000E+00 0. 9.
     -12    1   16    0    0    0  4.2325522449E+01 -1.8949796558E+01  7.3261240173E+01  8.6704982278E+01  0.0000000000E+00 0. 9.
      -3    1   18    0    0  105  5.6036185044E+01  2.6391531022E+01 -4.7581866744E+01  7.8107944454E+01  5.0000000000E-01 0. 9.
       4    1   18    0  105    0 -3.3786482141E+00 -3.4081764216E+01 -3.2699439489E+01  4.7375998762E+01  1.5000000000E+00 0. 9.
       3    1   19    0  106    0  1.9711462982E+00  3.5206179253E+01 -1.1280310569E+01  3.7025070991E+01  5.0000000000E-01 0. 9.
      -4    1   19    0    0  106 -4.1274750154E+01 -1.0220417936E+01  4.4779433325E+01  6.1769811333E+01  1.5000000000E+00 0. 9.
</event>
<event>
    16   271  1.000000E+00  1.029057E+03  7.979872E-03  9.243110E-02
       1   -1    0    0  101    0  0.0000000000E+00  0.0000000000E+00  1.6063966533E+03  1.6063966533E+03  0.0000000000E+00 0. 9.
       1   -1    0    0  102    0  0.0000000000E+00  0.0000000000E+00 -7.3375525647E+02  7.3375525647E+02  0.0000000000E+00 0. 9.
 1000001    2    1    2  102    0 -9.2510365451E+01 -2.4845399666E+02  8.0926040363E+02  1.3091449717E+03  9.9431916400E+02 0. 9.
 1000001    2    1    2  101    0  9.2510365451E+01  2.4845399666E+02  6.3380993228E+01  1.0310069381E+03  9.9431916400E+02 0. 9.
-1000024    2    3    0    0    0  3.8957056043E+02 -2.3979935374E+02  5.3895178788E+02  7.5638482608E+02  2.6903535800E+02 0. 9.
       2    1    3    0  102    0 -4.8208092588E+02 -8.6546429155E+00  2.7030861574E+02  5.5276014562E+02  3.3000000000E-01 0. 9.
 1000023    2    4    0    0    0 -4.0816831958E+02  1.9206492462E+02  2.7158391201E+01  5.2586234602E+02  2.6889276000E+02 0. 9.
       1    1    4    0  101    0  5.0067868503E+02  5.6389072040E+01  3.6222602027E+01  5.0514459206E+02  3.3000000000E-01 0. 9.
 1000022    1    5    0    0    0  2.1883441499E+02 -1.3760237425E+02  1.8691135504E+02  3.4407826982E+02  1.2896157000E+02 0. 9.
     -24    2    5    0    0    0  1.7073614544E+02 -1.0219697949E+02  3.5204043284E+02  4.1230655626E+02  8.0431188000E+01 0. 9.
 1000022    1    7    0    0    0 -2.7165975709E+02  1.1256520193E+02  3.5081941601E+01  3.2300429946E+02  1.2896157000E+02 0. 9.
      25    2    7    0    0    0 -1.3650856248E+02  7.9499722688E+01 -7.9235504002E+00  2.0285804656E+02  1.2701893900E+02 0. 9.
       3    1   10    0  103    0  8.1279325206E+01 -9.0481663036E+01  1.6881270160E+02  2.0806546632E+02  5.0000000000E-01 0. 9.
      -4    1   10    0    0  103  8.9456820237E+01 -1.1715316458E+01  1.8322773124E+02  2.0424108994E+02  1.5000000000E+00 0. 9.
       5    1   12    0  104    0 -5.3551634814E-01  6.1367707037E+01 -2.0843829800E+01  6.4990672296E+01  4.8000000000E+00 0. 9.
      -5    1   12    0    0  104 -1.3597304614E+02  1.8132015651E+01  1.2920279399E+01  1.3786737426E+02  4.8000000000E+00 0. 9.
</event>
<event>
    13   259  1.000000E+00  1.113969E+03  7.987148E-03  9.161189E-02
       2   -1    0    0  101    0  0.0000000000E+00  0.0000000000E+00  2.3504633419E+03  2.3504633419E+03  0.0000000000E+00 0. 9.
      21   -1    0    0  102  101  0.0000000000E+00  0.0000000000E+00 -6.5810955500E+02  6.5810955500E+02  0.0000000000E+00 0. 9.
 2000002    2    1    2  103    0 -3.4670920583E+01 -6.1175531763E+02  2.0681812104E+02  1.1835938221E+03  9.9129912700E+02 0. 9.
 1000021    2    1    2  102  103  3.4670920583E+01  6.1175531763E+02  1.4855356659E+03  1.8249790748E+03  8.6503512500E+02 0. 9.
 1000022    1    3    0    0    0  1.1029269519E+02 -4.7046257971E+02  5.7583285417E+02  7.6270182903E+02  1.2896157000E+02 0. 9.
       2    1    3    0  103    0 -1.4496361577E+02 -1.4129273791E+02 -3.6901473313E+02  4.2089199310E+02  3.3000000000E-01 0. 9.
 1000023    2    4    0    0    0 -2.1250609413E+02  3.5834508510E+02  2.8365169103E+02  5.7125444266E+02  2.6889276000E+02 0. 9.
       4    1    4    0  102    0  4.7500342541E+01  3.8109892368E+01  2.6444915917E+02  2.7137474869E+02  1.5000000000E+00 0. 9.
      -4    1    4    0    0  103  1.9967667217E+02  2.1530034017E+02  9.3743481566E+02  9.8234988344E+02  1.5000000000E+00 0. 9.
 1000022    1    7    0    0    0 -1.1949201657E+02  2.0417616706E+02  2.0002649477E+02  3.3557105710E+02  1.2896157000E+02 0. 9.
      25    2    7    0    0    0 -9.3014077558E+01  1.5416891804E+02  8.3625196257E+01  2.3568338556E+02  1.2701893900E+02 0. 9.
       5    1   11    0  104    0 -8.2317115780E+01  2.3984461973E+01  5.4680921732E+01  1.0180572267E+02  4.8000000000E+00 0. 9.
      -5    1   11    0    0  104 -1.0696961778E+01  1.3018445607E+02  2.8944274525E+01  1.3387766289E+02  4.8000000000E+00 0. 9.
</event>
<event>
    12   230  1.000000E+00  3.052321E+02  7.869992E-03  1.071129E-01
      -1   -1    0    0    0  101  0.0000000000E+00  0.0000000000E+00  1.0866795805E+02  1.0866795805E+02  0.0000000000E+00 0. 9.
       2   -1    0    0  101    0  0.0000000000E+00  0.0000000000E+00 -1.8981984600E+03  1.8981984600E+03  0.0000000000E+00 0. 9.
 1000023    2    1    2    0    0  1.3852749146E+02 -4.0436189003E+01 -1.6377202529E+03  1.6659099299E+03  2.6889276000E+02 0. 9.
 1000024    2    1    2    0    0 -1.3852749146E+02  4.0436189003E+01 -1.5181024905E+02  3.4095648820E+02  2.6903535800E+02 0. 9.
 1000022    1    3    0    0    0  4.5061420240E+01 -4.7122361327E+01 -6.7054332841E+02  6.8593767235E+02  1.2896157000E+02 0. 9.
      25    2    3    0    0    0  9.3466071222E+01  6.6861723237E+00 -9.6717692448E+02  9.7997225750E+02  1.2701893900E+02 0. 9.
 1000022    1    4    0    0    0 -3.6487814402E+01  6.6943368804E+01 -1.5216059316E+01  1.5058349918E+02  1.2896157000E+02 0. 9.
      24    2    4    0    0    0 -1.0203967706E+02 -2.6507179801E+01 -1.3659418973E+02  1.9037298902E+02  8.0431188000E+01 0. 9.
       5    1    6    0  102    0  1.0009012702E+01 -3.3956966169E+01 -7.6190350143E+01  8.4150254554E+01  4.8000000000E+00 0. 9.
      -5    1    6    0    0  102  8.3457058520E+01  4.0643138492E+01 -8.9098657434E+02  8.9582200295E+02  4.8000000000E+00 0. 9.
     -11    1    8    0    0    0  9.9513331461E+00 -1.6692383710E+01 -1.3466420363E+01  2.3643375033E+01  5.1000000000E-04 0. 9.
      12    1    8    0    0    0 -1.1199101021E+02 -9.8147960910E+00 -1.2312776937E+02  1.6672961398E+02  0.0000000000E+00 0. 9.
</event>
<event>
    12   230  1.000000E+00  2.792256E+02  7.862060E-03  1.083743E-01
       2   -1    0    0  101    0  0.0000000000E+00  0.0000000000E+00  1.5640788740E+03  1.5640788740E+03  0.0000000000E+00 0. 9.
      -1   -1    0    0    0  101  0.0000000000E+00  0.0000000000E+00 -5.5762185894E+01  5.5762185894E+01  0.0000000000E+00 0. 9.
 1000024    2    1    2    0    0  7.1133531653E+01  2.3776065063E+01  4.9056803654E+02  5.6450181835E+02  2.6903535800E+02 0. 9.
 1000023    2    1    2    0    0 -7.1133531653E+01 -2.3776065063E+01  1.0177486516E+03  1.0553392416E+03  2.6889276000E+02 0. 9.
 1000022    1    3    0    0    0  3.1228774974E+01 -5.4509290345E+01  3.6120342826E+02  3.8864572845E+02  1.2896157000E+02 0. 9.
      24    2    3    0    0    0  3.9904756679E+01  7.8285355409E+01  1.2936460828E+02  1.7585608990E+02  8.0431188000E+01 0. 9.
 1000022    1    4    0    0    0 -4.1037329665E+01  6.0555711432E+01  4.6763997501E+02  4.9058056360E+02  1.2896157000E+02 0. 9.
      23    2    4    0    0    0 -3.0096201988E+01 -8.4331776495E+01  5.5010867659E+02  5.6475867798E+02  9.1187600000E+01 0. 9.
      -3    1    6    0    0  102  6.4128873037E+01  6.1518852426E+01  8.8134512071E+01  1.2515999272E+02  5.0000000000E-01 0. 9.
       4    1    6    0  102    0 -2.4224116358E+01  1.6766502983E+01  4.1230096213E+01  5.0696097180E+01  1.5000000000E+00 0. 9.
       4    1    8    0  103    0 -2.8992992431E+01 -1.0299295553E+02  4.9830539502E+02  5.0966524230E+02  1.5000000000E+00 0. 9.
      -4    1    8    0    0  103 -1.1032095576E+00  1.8661179031E+01  5.1803281564E+01  5.5093435679E+01  1.5000000000E+00 0. 9.
</event>
<event>
    12   230  1.000000E+00  3.137638E+02  7.872451E-03  1.067283E-01
      -1   -1    0    0    0  101  0.0000000000E+00  0.0000000000E+00  9.6021297949E+01  9.6021297949E+01  0.0000000000E+00 0. 9.
       2   -1    0    0  101    0  0.0000000000E+00  0.0000000000E+00 -1.2244406363E+03  1.2244406363E+03  0.0000000000E+00 0. 9.
 1000023    2    1    2    0    0  1.0606911870E+02  1.2188265581E+02 -2.9783660550E+02  4.3256906926E+02  2.6889276000E+02 0. 9.
 1000024    2    1    2    0    0 -1.0606911870E+02 -1.2188265581E+02 -8.3058273285E+02  8.8789286498E+02  2.6903535800E+02 0. 9.
 1000022    1    3    0    0    0  6.8270072018E+01  9.7363519135E+01 -1.3599862151E+02  2.2196208951E+02  1.2896157000E+02 0. 9.
      25    2    3    0    0    0  3.7799046677E+01  2.4519136672E+01 -1.6183798399E+02  2.1060697975E+02  1.2701893900E+02 0. 9.
 1000022    1    4    0    0    0 -8.6568622267E+01 -3.6561053688E+01 -6.6615484268E+02  6.8499941458E+02  1.2896157000E+02 0. 9.
      24    2    4    0    0    0 -1.9500496428E+01 -8.5321602119E+01 -1.6442789016E+02  2.0289345040E+02  8.0431188000E+01 0. 9.
       4    1    6    0  102    0  7.4221895629E+01  4.3051559252E+01 -1.4010023469E+02  1.6429440741E+02  1.5000000000E+00 0. 9.
      -4    1    6    0    0  102 -3.6422848952E+01 -1.8532422580E+01 -2.1737749300E+01  4.6312572344E+01  1.5000000000E+00 0. 9.
      -1    1    8    0    0  103 -3.1480462933E+01 -8.9351381031E+01 -1.0203938448E+02  1.3923661057E+02  3.3000000000E-01 0. 9.
       2    1    8    0  103    0  1.1979966505E+01  4.0297789119E+00 -6.2388505687E+01  6.3656839832E+01  3.3000000000E-01 0. 9.
</event>
<event>
    13   247  1.000000E+00  7.450564E+02  7.950377E-03  9.592488E-02
       2   -1    0    0  101    0  0.0000000000E+00  0.0000000000E+00  5.4277210163E+02  5.4277210163E+02  0.0000000000E+00 0. 9.
      21   -1    0    0  102  101  0.0000000000E+00  0.0000000000E+00 -7.6372644439E+02  7.6372644439E+02  0.0000000000E+00 0. 9.
 2000002    2    1    2  102    0 -6.7712993992E+01 -2.2554691745E+02 -1.6336384962E+02  1.0319002704E+03  9.9129912700E+02 0. 9.
 1000022    1    1    2    0    0  6.7712993992E+01  2.2554691745E+02 -5.7590493142E+01  2.7459827560E+02  1.2896157000E+02 0. 9.
 1000021    2    3    0  102  103 -8.6357027805E+01 -2.7313766560E+02 -2.3766322328E+02  9.4171720586E+02  8.6503512500E+02 0. 9.
       2    1    3    0  103    0  1.8644033813E+01  4.7590748156E+01  7.4299373659E+01  9.0183064557E+01  3.3000000000E-01 0. 9.
 1000023    2    5    0    0    0  3.4045973471E+01  1.7018065343E+02 -2.2607570203E+02  3.9183430496E+02  2.6889276000E+02 0. 9.
       5    1    5    0  102    0 -5.0705533657E+01 -1.1633185799E+02  1.3451452567E+02  1.8499013472E+02  4.8000000000E+00 0. 9.
      -5    1    5    0    0  103 -6.9697467619E+01 -3.2698646104E+02 -1.4610204692E+02  3.6489276618E+02  4.8000000000E+00 0. 9.
 1000022    1    7    0    0    0 -5.2839950433E+00  6.7468693154E+01 -6.6467339106E+01  1.6009040841E+02  1.2896157000E+02 0. 9.
      25    2    7    0    0    0  3.9329968514E+01  1.0271196027E+02 -1.5960836293E+02  2.3174389655E+02  1.2701893900E+02 0. 9.
       5    1   11    0  104    0 -9.5036458824E-01  1.1941913090E+02 -1.3886271225E+02  1.8321496902E+02  4.8000000000E+00 0. 9.
      -5    1   11    0    0  104  4.0280333103E+01 -1.6707170630E+01 -2.0745650678E+01  4.8528927532E+01  4.8000000000E+00 0. 9.
</event>
<event>
    11   238  1.000000E+00  6.548983E+02  7.938657E-03  9.739522E-02
      -2   -1    0    0    0  101  0.0000000000E+00  0.0000000000E+00  2.5647606988E+02  2.5647606988E+02  0.0000000000E+00 0. 9.
       2   -1    0    0  102    0  0.0000000000E+00  0.0000000000E+00 -1.4578686641E+03  1.4578686641E+03  0.0000000000E+00 0. 9.
 1000021    2    1    2  102  101  1.4615276539E+01 -1.3558631137E+02 -1.0772476426E+03  1.3882886966E+03  8.6503512500E+02 0. 9.
 1000023    2    1    2    0    0 -1.4615276539E+01  1.3558631137E+02 -1.2414495169E+02  3.2605603744E+02  2.6889276000E+02 0. 9.
 1000022    1    3    0    0    0 -1.1509519245E+02  7.4966140488E+01  6.5541759863E+01  1.9948341878E+02  1.2896157000E+02 0. 9.
       4    1    3    0  102    0  4.1930266625E+01 -2.2542027542E+02 -9.3569827043E+02  9.6338255699E+02  1.5000000000E+00 0. 9.
      -4    1    3    0    0  101  8.7780202362E+01  1.4867823559E+01 -2.0709113199E+02  2.2542272080E+02  1.5000000000E+00 0. 9.
 1000022    1    4    0    0    0  3.8034203849E+01  6.0866139466E+00 -5.4979707019E+01  1.4538742123E+02  1.2896157000E+02 0. 9.
      23    2    4    0    0    0 -5.2649480388E+01  1.2949969742E+02 -6.9165244668E+01  1.8066861620E+02  9.1187600000E+01 0. 9.
       5    1    9    0  103    0 -1.7932087054E+01  1.1654972745E+02 -2.1264910566E+01  1.1991928593E+02  4.8000000000E+00 0. 9.
      -5    1    9    0    0  103 -3.4717393333E+01  1.2949969966E+01 -4.7900334102E+01  6.0749330277E+01  4.8000000000E+00 0. 9.
</event>
<event>
    24   259  1.000000E+00  1.190765E+03  7.993275E-03  9.093422E-02
      21   -1    0    0  101  102  0.0000000000E+00  0.0000000000E+00  6.4590178913E+02  6.4590178913E+02  0.0000000000E+00 0. 9.
       1   -1    0    0  102    0  0.0000000000E+00  0.0000000000E+00 -2.3306559819E+03  2.3306559819E+03  0.0000000000E+00 0. 9.
 1000021    2    1    2  101  103  1.5891057111E+02 -7.2580016307E+02 -1.1728702888E+03  1.6358327934E+03  8.6503512500E+02 0. 9.
 2000001    2    1    2  103    0 -1.5891057111E+02  7.2580016307E+02 -5.1188390397E+02  1.3407249776E+03  9.9170554500E+02 0. 9.
 1000023    2    3    0    0    0  6.1041980507E+01 -4.1687799875E+02 -1.5210097104E+02  5.2244751985E+02  2.6889276000E+02 0. 9.
       5    1    3    0  101    0  1.0017827769E+01  3.8932152069E+01 -1.1283856692E+01  4.2028975241E+01  4.8000000000E+00 0. 9.
      -5    1    3    0    0  103  8.7850762835E+01 -3.4785431639E+02 -1.0094854610E+03  1.0713562983E+03  4.8000000000E+00 0. 9.
 1000021    2    4    0  103  104 -2.2077354557E+02  7.0674742402E+02 -3.9155639534E+02  1.2040909675E+03  8.6503512500E+02 0. 9.
       1    1    4    0  104    0  6.1862974458E+01  1.9052739044E+01 -1.2032750862E+02  1.3663401006E+02  3.3000000000E-01 0. 9.
 1000022    1    5    0    0    0  9.9864582034E+01 -1.8702232342E+02 -5.6544702596E+01  2.5451654982E+02  1.2896157000E+02 0. 9.
      23    2    5    0    0    0 -3.8822601527E+01 -2.2985567532E+02 -9.5556268440E+01  2.6793097003E+02  9.1187600000E+01 0. 9.
 1000024    2    8    0    0    0 -2.7457816463E+02  7.6599572459E+02 -4.8552047748E+02  9.8501409964E+02  2.6903535800E+02 0. 9.
      -6    2    8    0    0  104  4.7271237540E+01 -5.4020959504E+01  9.3272370008E+01  2.0940584751E+02  1.7320000000E+02 0. 9.
       5    1    8    0  103    0  6.5333815234E+00 -5.2273410673E+00  6.9171213089E-01  9.6710203410E+00  4.8000000000E+00 0. 9.
       5    1   11    0  105    0 -2.5458182470E+01 -1.1148485339E+01  1.4802186993E+00  2.8242500375E+01  4.8000000000E+00 0. 9.
      -5    1   11    0    0  105 -1.3364419057E+01 -2.1870718999E+02 -9.7036487139E+01  2.3968846965E+02  4.8000000000E+00 0. 9.
 1000022    1   12    0    0    0 -7.3862964234E+01  4.3866443619E+02 -2.9262238019E+02  5.4785141141E+02  1.2896157000E+02 0. 9.
      24    2   12    0    0    0 -2.0071520040E+02  3.2733128841E+02 -1.9289809730E+02  4.3716268823E+02  8.0431188000E+01 0. 9.
     -24    2   13    0    0    0  2.2024993318E+01 -2.2061471378E+01  1.2888706361E+02  1.5508984499E+02  8.0431188000E+01 0. 9.
      -5    1   13    0    0  104  2.5246244222E+01 -3.1959488127E+01 -3.5614693606E+01  5.4316002516E+01  4.8000000000E+00 0. 9.
      -3    1   18    0    0  106 -1.5943123970E+02  2.1468721477E+02 -1.0029327493E+02  2.8560096529E+02  5.0000000000E-01 0. 9.
       4    1   18    0  106    0 -4.1283960697E+01  1.1264407364E+02 -9.2604822368E+01  1.5156172295E+02  1.5000000000E+00 0. 9.
      15    1   19    0    0    0  4.9307211371E+01  2.1209976249E+00  6.6503678436E+01  8.2834755379E+01  1.7770000000E+00 0. 9.
     -16    1   19    0    0    0 -2.7282218053E+01 -2.4182469003E+01  6.2383385179E+01  7.2255089615E+01  0.0000000000E+00 0. 9.
</event>
<event>
    12   230  1.000000E+00  3.470140E+02  7.881448E-03  1.053465E-01
       2   -1    0    0  101    0  0.0000000000E+00  0.0000000000E+00  7.5962568250E+02  7.5962568250E+02  0.0000000000E+00 0. 9.
      -1   -1    0    0    0  101  0.0000000000E+00  0.0000000000E+00 -1.7893997818E+02  1.7893997818E+02  0.0000000000E+00 0. 9.
 1000024    2    1    2    0    0  7.9457664529E+01  2.0436124616E+02  4.4889824309E+02  5.6742109221E+02  2.6903535800E+02 0. 9.
 1000023    2    1    2    0    0 -7.9457664529E+01 -2.0436124616E+02  1.3178746124E+02  3.7114456847E+02  2.6889276000E+02 0. 9.
 1000022    1    3    0    0    0  1.3773056141E+01  2.0560205054E+02  3.0743135770E+02  3.9192732298E+02  1.2896157000E+02 0. 9.
      24    2    3    0    0    0  6.5684608388E+01 -1.2408043854E+00  1.4146688539E+02  1.7549376923E+02  8.0431188000E+01 0. 9.
 1000022    1    4    0    0    0 -5.6973571380E+01 -1.2897913202E+02  1.0907610112E+02  2.2002337763E+02  1.2896157000E+02 0. 9.
      25    2    4    0    0    0 -2.2484093149E+01 -7.5382114136E+01  2.2711360118E+01  1.5112119084E+02  1.2701893900E+02 0. 9.
      -1    1    6    0    0  102 -2.0710571569E+00  9.1561572430E-02 -9.6505176882E+00  9.8761861525E+00  3.3000000000E-01 0. 9.
       2    1    6    0  102    0  6.7755665545E+01 -1.3323659578E+00  1.5111740308E+02  1.6561758308E+02  3.3000000000E-01 0. 9.
       5    1    8    0  103    0 -1.4645128381E+01 -4.1271257022E+01 -5.2195094929E+01  6.8302008580E+01  4.8000000000E+00 0. 9.
      -5    1    8    0    0  103 -7.8389647684E+00 -3.4110857114E+01  7.4906455047E+01  8.2819182255E+01  4.8000000000E+00 0. 9.
</event>
<event>
    17   258  1.000000E+00  1.051869E+03  7.981883E-03  9.220310E-02
      21   -1    0    0  101  102  0.0000000000E+00  0.0000000000E+00  8.3966290869E+02  8.3966290869E+02  0.0000000000E+00 0. 9.
      -1   -1    0    0    0  101  0.0000000000E+00  0.0000000000E+00 -1.3378705266E+03  1.3378705266E+03  0.0000000000E+00 0. 9.
 1000021    2    1    2  103  102 -2.4007743127E+02 -4.2463171539E+02 -3.8158802411E+02  1.0638817859E+03  8.6503512500E+02 0. 9.
-1000001    2    1    2    0  103  2.4007743127E+02  4.2463171539E+02 -1.1661959383E+02  1.1136516494E+03  9.9431916400E+02 0. 9.
-1000024    2    3    0    0    0 -1.4067454753E+02 -2.7186882328E+02 -4.1149814344E+02  5.7914828093E+02  2.6903535800E+02 0. 9.
       4    1    3    0  103    0  1.1215785199E+02 -2.2651128153E+02  5.6837307504E+01  2.5907426338E+02  1.5000000000E+00 0. 9.
      -3    1    3    0    0  102 -2.1156073574E+02  7.3748389418E+01 -2.6927188177E+01  2.2565924158E+02  5.0000000000E-01 0. 9.
 1000024    2    4    0    0    0 -7.3429151601E+01  1.4521178658E+02 -4.6954348686E+02  5.6509239348E+02  2.6903535800E+02 0. 9.
      -2    1    4    0    0  103  3.1350658287E+02  2.7941992882E+02  3.5292389303E+02  5.4855925595E+02  3.3000000000E-01 0. 9.
 1000022    1    5    0    0    0 -7.9798594944E+01 -2.1902135361E+02 -1.8105232282E+02  3.2210122512E+02  1.2896157000E+02 0. 9.
     -24    2    5    0    0    0 -6.0875952583E+01 -5.2847469675E+01 -2.3044582062E+02  2.5704705580E+02  8.0431188000E+01 0. 9.
 1000022    1    8    0    0    0 -6.7287964762E+00  4.6758792004E+01 -3.5751985797E+02  3.8299242383E+02  1.2896157000E+02 0. 9.
      24    2    8    0    0    0 -6.6700355124E+01  9.8452994573E+01 -1.1202362888E+02  1.8209996965E+02  8.0431188000E+01 0. 9.
      11    1   11    0    0    0  2.4499383203E+00  1.0151295778E+01 -8.9986168052E+01  9.0590073654E+01  5.1000000000E-04 0. 9.
     -12    1   11    0    0    0 -6.3325890903E+01 -6.2998765453E+01 -1.4045965257E+02  1.6645698215E+02  0.0000000000E+00 0. 9.
      -3    1   13    0    0  104 -5.5581047362E+01  1.1248871989E+02 -1.0043065433E+02  1.6071568454E+02  5.0000000000E-01 0. 9.
       4    1   13    0  104    0 -1.1119307762E+01 -1.4035725321E+01 -1.1592974558E+01  2.1384285106E+01  1.5000000000E+00 0. 9.
</event>
<event>
    12   226  1.000000E+00  3.202539E+02  7.874278E-03  1.064445E-01
       1   -1    0    0  101    0  0.0000000000E+00  0.0000000000E+00  4.1988472254E+02  4.1988472254E+02  0.0000000000E+00 0. 9.
      -1   -1    0    0    0  101  0.0000000000E+00  0.0000000000E+00 -4.3142175437E+02  4.3142175437E+02  0.0000000000E+00 0. 9.
-1000024    2    1    2    0    0 -7.2265010994E+01 -1.5798836621E+02 -2.8612411102E+02  4.2945265913E+02  2.6903535800E+02 0. 9.
 1000024    2    1    2    0    0  7.2265010994E+01  1.5798836621E+02  2.7458707918E+02  4.2185381779E+02  2.6903535800E+02 0. 9.
 1000022    1    3    0    0    0 -1.0408095553E+02 -4.3025114531E+01 -1.9336681892E+02  2.5827469675E+02  1.2896157000E+02 0. 9.
     -24    2    3    0    0    0  3.1815944536E+01 -1.1496325168E+02 -9.2757292093E+01  1.7117796238E+02  8.0431188000E+01 0. 9.
 1000022    1    4    0    0    0  9.0948057120E+01  1.1023367416E+02  2.6277586595E+02  3.2573801479E+02  1.2896157000E+02 0. 9.
      24    2    4    0    0    0 -1.8683046126E+01  4.7754692050E+01  1.1811213232E+01  9.6115803000E+01  8.0431188000E+01 0. 9.
       1    1    6    0  102    0  5.4930250757E+01 -4.9295912046E+01 -5.4435139040E+01  9.1709937602E+01  3.3000000000E-01 0. 9.
      -2    1    6    0    0  102 -2.3114306222E+01 -6.5667339635E+01 -3.8322153054E+01  7.9468024774E+01  3.3000000000E-01 0. 9.
     -15    1    8    0    0    0  1.0295001553E+01  5.7949181375E+01  2.3290333103E+01  6.3322129023E+01  1.7770000000E+00 0. 9.
      16    1    8    0    0    0 -2.8978047679E+01 -1.0194489325E+01 -1.1479119872E+01  3.2793673977E+01  0.0000000000E+00 0. 9.
</event>
<event>
    26   272  1.000000E+00  1.165379E+03  7.991293E-03  9.115217E-02
       1   -1    0    0  101    0  0.0000000000E+00  0.0000000000E+00  2.1938339724E+03  2.1938339724E+03  0.0000000000E+00 0. 9.
       2   -1    0    0  102    0  0.0000000000E+00  0.0000000000E+00 -7.3215163623E+02  7.3215163623E+02  0.0000000000E+00 0. 9.
 2000001    2    1    2  102    0  5.1407671161E+02 -3.3280214712E+02  1.3059251246E+03  1.7504149376E+03  9.9170554500E+02 0. 9.
 2000002    2    1    2  101    0 -5.1407671161E+02  3.3280214712E+02  1.5575721157E+02  1.1755706711E+03  9.9129912700E+02 0. 9.
 1000021    2    3    0  102  103  4.7529875952E+02 -1.7497670217E+02  1.1032840081E+03  1.4906532552E+03  8.6503512500E+02 0. 9.
       1    1    3    0  103    0  3.8777952093E+01 -1.5782544495E+02  2.0264111647E+02  2.5976168237E+02  3.3000000000E-01 0. 9.
 1000021    2    4    0  101  104 -4.1170200945E+02  4.0210802610E+02  1.6320474078E+02  1.0517181011E+03  8.6503512500E+02 0. 9.
       2    1    4    0  104    0 -1.0237470216E+02 -6.9305878983E+01 -7.4475292055E+00  1.2385257000E+02  3.3000000000E-01 0. 9.
 1000024    2    5    0    0    0  3.4778938506E+02 -1.1310681001E+02  5.3222997348E+02  6.9957085084E+02  2.6903535800E+02 0. 9.
      -2    1    5    0    0  103 -9.5144911688E+01  1.3020501168E+02  4.4098403806E+02  4.6954545042E+02  3.3000000000E-01 0. 9.
       1    1    5    0  102    0  2.2265428614E+02 -1.9207490383E+02  1.3006999660E+02  3.2153695392E+02  3.3000000000E-01 0. 9.
 1000024    2    7    0    0    0 -2.8980497628E+02  2.0396602201E+02  3.5564297588E+02  5.6960601520E+02  2.6903535800E+02 0. 9.
      -6    2    7    0    0  104  1.6996003038E+01  2.2103927382E+02 -1.9316665519E+02  3.4126063553E+02  1.7320000000E+02 0. 9.
       5    1    7    0  101    0 -1.3889303621E+02 -2.2897269720E+01  7.2842008210E-01  1.4085145034E+02  4.8000000000E+00 0. 9.
 1000022    1    9    0    0    0  2.9070438340E+02 -1.1395265169E+02  3.1901044149E+02  4.6464286680E+02  1.2896157000E+02 0. 9.
      24    2    9    0    0    0  5.7085001665E+01  8.4584167809E-01  2.1321953199E+02  2.3492798405E+02  8.0431188000E+01 0. 9.
 1000022    1   12    0    0    0 -1.8020784941E+02  1.0220280465E+02  3.0854135119E+02  3.9338166480E+02  1.2896157000E+02 0. 9.
      24    2   12    0    0    0 -1.0959712687E+02  1.0176321736E+02  4.7101624689E+01  1.7622435041E+02  8.0431188000E+01 0. 9.
     -24    2   13    0    0    0  6.8273588248E+01  1.5747080033E+02 -9.0669157417E+01  2.1011522534E+02  8.0431188000E+01 0. 9.
      -5    1   13    0    0  104 -5.1277585210E+01  6.3568473484E+01 -1.0249749777E+02  1.3114541019E+02  4.8000000000E+00 0. 9.
      -1    1   16    0    0  105  4.6748803052E+01 -3.4752258679E+01  9.9256535997E+01  1.1508752716E+02  3.3000000000E-01 0. 9.
       2    1   16    0  105    0  1.0336198613E+01  3.5598100357E+01  1.1396299599E+02  1.1984045689E+02  3.3000000000E-01 0. 9.
     -15    1   18    0    0    0 -9.7702808862E+01  8.7891840666E+01  6.8398246833E+01  1.4816306022E+02  1.7770000000E+00 0. 9.
      16    1   18    0    0    0 -1.1894318008E+01  1.3871376690E+01 -2.1296622144E+01  2.8061290186E+01  0.0000000000E+00 0. 9.
       3    1   19    0  106    0  7.6475753487E+01  1.2001841079E+02 -4.2484116791E+01  1.4851972926E+02  5.0000000000E-01 0. 9.
      -4    1   19    0    0  106 -8.2021652392E+00  3.7452389541E+01 -4.8185040627E+01  6.1595496078E+01  1.5000000000E+00 0. 9.
</event>
<event>
    18   272  1.000000E+00  1.165764E+03  7.991324E-03  9.114883E-02
       2   -1    0    0  101    0  0.0000000000E+00  0.0000000000E+00  1.0348140700E+03  1.0348140700E+03  0.0000000000E+00 0. 9.
       2   -1    0    0  102    0  0.0000000000E+00  0.0000000000E+00 -1.9242241563E+03  1.9242241563E+03  0.0000000000E+00 0. 9.
 2000002    2    1    2  102    0 -3.3212787902E+02  5.1577400382E+02  3.8896032125E+02  1.2289409431E+03  9.9129912700E+02 0. 9.
 2000002    2    1    2  101    0  3.3212787902E+02 -5.1577400382E+02 -1.2783704075E+03  1.7300972831E+03  9.9129912700E+02 0. 9.
 1000021    2    3    0  102  103 -2.2722579394E+02  4.2031141437E+02  4.3513353541E+02  1.0797778510E+03  8.6503512500E+02 0. 9.
       2    1    3    0  103    0 -1.0490208508E+02  9.5462589451E+01 -4.6173214161E+01  1.4916309210E+02  3.3000000000E-01 0. 9.
 1000021    2    4    0  101  104  2.9598040282E+02 -3.3932072240E+02 -9.8675461400E+02  1.3873404006E+03  8.6503512500E+02 0. 9.
       2    1    4    0  104    0  3.6147476206E+01 -1.7645328142E+02 -2.9161579351E+02  3.4275688248E+02  3.3000000000E-01 0. 9.
 1000023    2    5    0    0    0 -1.1340474153E+02 -3.2941343816E+00  1.9000576484E+02  3.4824846558E+02  2.6889276000E+02 0. 9.
       3    1    5    0  102    0  5.4332454792E+01 -8.1935753937E+01  1.6597519436E+02  1.9290800543E+02  5.0000000000E-01 0. 9.
      -3    1    5    0    0  103 -1.6815350720E+02  5.0554130269E+02  7.9152576210E+01  5.3862138004E+02  5.0000000000E-01 0. 9.
 1000022    1    7    0    0    0  2.0637848070E+02 -5.9641550675E+02 -5.6788000107E+02  8.5873297139E+02  1.2896157000E+02 0. 9.
       2    1    7    0  101    0  1.2757566461E+01  2.2267228439E+02 -2.2297718265E+02  3.1538014303E+02  3.3000000000E-01 0. 9.
      -2    1    7    0    0  104  7.6844355652E+01  3.4422499960E+01 -1.9589743028E+02  2.1322728622E+02  3.3000000000E-01 0. 9.
 1000022    1    9    0    0    0 -9.5677651570E+01  6.4505072896E+01  1.4107285082E+02  2.2326610404E+02  1.2896157000E+02 0. 9.
      23    2    9    0    0    0 -1.7727089959E+01 -6.7799207278E+01  4.8932914022E+01  1.2498236153E+02  9.1187600000E+01 0. 9.
       5    1   16    0  105    0 -2.1285435321E+01  1.2369557640E+01  3.5515101406E+01  4.3479169046E+01  4.8000000000E+00 0. 9.
      -5    1   16    0    0  105  3.5583453621E+00 -8.0168764918E+01  1.3417812616E+01  8.1503192487E+01  4.8000000000E+00 0. 9.
</event>
<event>
    16   271  1.000000E+00  1.033939E+03  7.980306E-03  9.238179E-02
       2   -1    0    0  101    0  0.0000000000E+00  0.0000000000E+00  1.9627309264E+03  1.9627309264E+03  0.0000000000E+00 0. 9.
       2   -1    0    0  102    0  0.0000000000E+00  0.0000000000E+00 -1.0815077172E+03  1.0815077172E+03  0.0000000000E+00 0. 9.
 1000002    2    1    2  101    0  1.1204047598E+02 -2.7090885472E+02 -6.3179061648E+02  1.2116884267E+03  9.9150632100E+02 0. 9.
 1000002    2    1    2  102    0 -1.1204047598E+02  2.7090885472E+02  1.5130138257E+03  1.8325502168E+03  9.9150632100E+02 0. 9.
 1000023    2    3    0    0    0  1.3926408952E+02 -3.2080946727E+01  1.8767234677E+02  3.5769805688E+02  2.6889276000E+02 0. 9.
       2    1    3    0  101    0 -2.7223613548E+01 -2.3882790799E+02 -8.1946296325E+02  8.5399036985E+02  3.3000000000E-01 0. 9.
 1000023    2    4    0    0    0 -1.0118997046E+02  5.2300847054E+02  1.4564531093E+03  1.5739556049E+03  2.6889276000E+02 0. 9.
       2    1    4    0  102    0 -1.0850505514E+01 -2.5209961582E+02  5.6560716445E+01  2.5859461191E+02  3.3000000000E-01 0. 9.
 1000022    1    5    0    0    0  9.7664891651E+01 -2.0586551082E+01  1.4124872297E+02  2.1574180268E+02  1.2896157000E+02 0. 9.
      25    2    5    0    0    0  4.1599197873E+01 -1.1494395645E+01  4.6423623798E+01  1.4195625420E+02  1.2701893900E+02 0. 9.
 1000022    1    7    0    0    0 -7.3911935468E+01  3.3358206129E+02  8.3312687213E+02  9.0965457038E+02  1.2896157000E+02 0. 9.
      25    2    7    0    0    0 -2.7278034995E+01  1.8942640925E+02  6.2332623713E+02  6.6430103452E+02  1.2701893900E+02 0. 9.
       5    1   10    0  103    0  7.8154503641E+01  2.3305562755E+01  3.9640353069E+01  9.0805689723E+01  4.8000000000E+00 0. 9.
      -5    1   10    0    0  103 -3.6555305767E+01 -3.4799958400E+01  6.7832707286E+00  5.1150564476E+01  4.8000000000E+00 0. 9.
       5    1   12    0  104    0  3.7864320867E+01  4.2847814411E+01  8.4926010624E+01  1.0249443534E+02  4.8000000000E+00 0. 9.
      -5    1   12    0    0  104 -6.5142355862E+01  1.4657859484E+02  5.3840022650E+02  5.6180659919E+02  4.8000000000E+00 0. 9.
</event>
<event>
    12   230  1.000000E+00  3.598349E+02  7.884694E-03  1.048575E-01
       2   -1    0    0  101    0  0.0000000000E+00  0.0000000000E+00  1.0988254091E+03  1.0988254091E+03  0.0000000000E+00 0. 9.
      -1   -1    0    0    0  101  0.0000000000E+00  0.0000000000E+00 -1.1813811895E+02  1.1813811895E+02  0.0000000000E+00 0. 9.
 1000024    2    1    2    0    0  1.6861830411E+00 -2.3903277838E+02  5.2118759835E+02  6.3336880952E+02  2.6903535800E+02 0. 9.
 1000023    2    1    2    0    0 -1.6861830411E+00  2.3903277838E+02  4.5949969183E+02  5.8359471855E+02  2.6889276000E+02 0. 9.
 1000022    1    3    0    0    0  5.2490763383E+01 -1.2306615486E+02  3.9810016557E+02  4.3933516485E+02  1.2896157000E+02 0. 9.
      24    2    3    0    0    0 -5.0804580342E+01 -1.1596662352E+02  1.2308743278E+02  1.9403364467E+02  8.0431188000E+01 0. 9.
 1000022    1    4    0    0    0 -2.2919485514E+01  9.0322057101E+01  2.4890030782E+02  2.9540789865E+02  1.2896157000E+02 0. 9.
      25    2    4    0    0    0  2.1233302473E+01  1.4871072128E+02  2.1059938401E+02  2.8818681991E+02  1.2701893900E+02 0. 9.
      -1    1    6    0    0  102 -2.5488473657E+01 -2.3239812687E+00  1.4233676032E+00  2.5635874349E+01  3.3000000000E-01 0. 9.
       2    1    6    0  102    0 -2.5316106685E+01 -1.1364264225E+02  1.2166406517E+02  1.6839777032E+02  3.3000000000E-01 0. 9.
       5    1    8    0  103    0 -4.2580185275E+01  1.1166965341E+02  1.5441993935E+02  1.9532470745E+02  4.8000000000E+00 0. 9.
      -5    1    8    0    0  103  6.3813487749E+01  3.7041067862E+01  5.6179444658E+01  9.2862112453E+01  4.8000000000E+00 0. 9.
</event>
<event>
    13   247  1.000000E+00  7.339783E+02  7.949014E-03  9.609337E-02
       1   -1    0    0  101    0  0.0000000000E+00  0.0000000000E+00  1.1341430146E+03  1.1341430146E+03  0.0000000000E+00 0. 9.
      21   -1    0    0  102  101  0.0000000000E+00  0.0000000000E+00 -5.2716581440E+02  5.2716581440E+02  0.0000000000E+00 0. 9.
 2000001    2    1    2  102    0 -1.9344364779E+02 -3.5329702305E+01  6.9026698596E-01  1.0110138462E+03  9.9170554500E+02 0. 9.
 1000022    1    1    2    0    0  1.9344364779E+02  3.5329702305E+01  6.0628693321E+02  6.5029498280E+02  1.2896157000E+02 0. 9.
 1000021    2    3    0  102  103 -5.0130177561E+01 -2.9807579073E+01 -1.1512556993E+01  8.6707544823E+02  8.6503512500E+02 0. 9.
       1    1    3    0  103    0 -1.4331347023E+02 -5.5221232324E+00  1.2202823979E+01  1.4393839796E+02  3.3000000000E-01 0. 9.
 1000023    2    5    0    0    0 -1.7785795566E+02 -8.4657497127E+01  2.3051020410E+02  4.0526363615E+02  2.6889276000E+02 0. 9.
       3    1    5    0  102    0 -8.8777127804E+01 -8.6639467228E+01 -3.0628408224E+01  1.2777372614E+02  5.0000000000E-01 0. 9.
      -3    1    5    0    0  103  2.1650490590E+02  1.4148938528E+02 -2.1139435287E+02  3.3403808593E+02  5.0000000000E-01 0. 9.
 1000022    1    7    0    0    0 -1.3185401340E+02 -3.1041033229E+01  1.4478276061E+02  2.3652095235E+02  1.2896157000E+02 0. 9.
      25    2    7    0    0    0 -4.6003942261E+01 -5.3616463898E+01  8.5727443490E+01  1.6874268380E+02  1.2701893900E+02 0. 9.
       5    1   11    0  104    0  4.1537922380E+01  2.2219638327E-01  3.2136384037E+01  5.2737420736E+01  4.8000000000E+00 0. 9.
      -5    1   11    0    0  104 -8.7541864641E+01 -5.3838660281E+01  5.3591059452E+01  1.1600526307E+02  4.8000000000E+00 0. 9.
</event>
<event>
    16   258  1.000000E+00  1.120040E+03  7.987647E-03  9.155627E-02
       2   -1    0    0  101    0  0.0000000000E+00  0.0000000000E+00  1.7651691203E+03  1.7651691203E+03  0.0000000000E+00 0. 9.
      21   -1    0    0  102  103  0.0000000000E+00  0.0000000000E+00 -9.8953715651E+02  9.8953715651E+02  0.0000000000E+00 0. 9.
 1000002    2    1    2  102    0  2.3239020880E+02 -5.7861749252E+02 -3.3177414758E+02  1.2173587316E+03  9.9150632100E+02 0. 9.
 1000021    2    1    2  101  103 -2.3239020880E+02  5.7861749252E+02  1.1074061113E+03  1.5373475452E+03  8.6503512500E+02 0. 9.
 1000021    2    3    0  102  104  2.0475187990E+02 -6.3501097749E+02 -3.5754740359E+02  1.1494730041E+03  8.6503512500E+02 0. 9.
       2    1    3    0  104    0  2.7638328897E+01  5.6393484970E+01  2.5773256016E+01  6.7885727490E+01  3.3000000000E-01 0. 9.
 1000022    1    4    0    0    0  1.7520279681E+01  2.5228353184E+02 -3.1172050207E+01  2.8558137875E+02  1.2896157000E+02 0. 9.
       2    1    4    0  101    0 -2.2075337604E+02  3.2599877387E+02  6.3368909629E+02  7.4603567827E+02  3.3000000000E-01 0. 9.
      -2    1    4    0    0  103 -2.9157112438E+01  3.3518680840E-01  5.0488906524E+02  5.0573048816E+02  3.3000000000E-01 0. 9.
-1000024    2    5    0    0    0  3.0613907777E+02 -6.6458490289E+02 -4.6129771935E+02  9.0585309947E+02  2.6903535800E+02 0. 9.
       4    1    5    0  102    0  5.7346606581E+01  1.7235474985E+01  4.0482487387E+01  7.2296449909E+01  1.5000000000E+00 0. 9.
      -3    1    5    0    0  104 -1.5873380444E+02  1.2338450413E+01  6.3267828370E+01  1.7132345472E+02  5.0000000000E-01 0. 9.
 1000022    1   10    0    0    0  1.9290898394E+02 -5.3408051382E+02 -2.9430012503E+02  6.5245652841E+02  1.2896157000E+02 0. 9.
     -24    2   10    0    0    0  1.1323009383E+02 -1.3050438906E+02 -1.6699759432E+02  2.5339657106E+02  8.0431188000E+01 0. 9.
       1    1   14    0  105    0  1.0777220910E+02 -8.9776570860E+01 -9.1598149506E+01  1.6752615206E+02  3.3000000000E-01 0. 9.
      -2    1   14    0    0  105  5.4578847245E+00 -4.0727818202E+01 -7.5399444815E+01  8.5870419002E+01  3.3000000000E-01 0. 9.
</event>
<event>
    12   226  1.000000E+00  3.560470E+02  7.883747E-03  1.049997E-01
       1   -1    0    0  101    0  0.0000000000E+00  0.0000000000E+00  2.0671843309E+02  2.0671843309E+02  0.0000000000E+00 0. 9.
      -1   -1    0    0    0  101  0.0000000000E+00  0.0000000000E+00 -7.2096997563E+02  7.2096997563E+02  0.0000000000E+00 0. 9.
-1000024    2    1    2    0    0 -1.7495286581E+02 -1.5421075372E+02 -4.3642047254E+02  5.6323380094E+02  2.6903535800E+02 0. 9.
 1000024    2    1    2    0    0  1.7495286581E+02  1.5421075372E+02 -7.7831070011E+01  3.6445460778E+02  2.6903535800E+02 0. 9.
 1000022    1    3    0    0    0 -2.5675611698E+01 -1.2735966364E+02 -2.0105490499E+02  2.7190785630E+02  1.2896157000E+02 0. 9.
     -24    2    3    0    0    0 -1.4927725411E+02 -2.6851090086E+01 -2.3536556755E+02  2.9132594465E+02  8.0431188000E+01 0. 9.
 1000022    1    4    0    0    0  1.0246875260E+02  1.3533809203E+02 -1.2243713884E+02  2.4584178635E+02  1.2896157000E+02 0. 9.
      24    2    4    0    0    0  7.2484113213E+01  1.8872661689E+01  4.4606068826E+01  1.1861282143E+02  8.0431188000E+01 0. 9.
       3    1    6    0  102    0 -9.4682293823E+01  1.5012276551E+01 -9.4817810326E+01  1.3483609445E+02  5.0000000000E-01 0. 9.
      -4    1    6    0    0  102 -5.4594960287E+01 -4.1863366637E+01 -1.4054775722E+02  1.5648985020E+02  1.5000000000E+00 0. 9.
      -1    1    8    0    0  103  5.3531407183E+01  4.7146505370E+01  1.3703985867E+01  7.2638231340E+01  3.3000000000E-01 0. 9.
       2    1    8    0  103    0  1.8952706030E+01 -2.8273843681E+01  3.0902082959E+01  4.5974590086E+01  3.3000000000E-01 0. 9.
</event>
<event>
    12   230  1.000000E+00  3.014312E+02  7.868875E-03  1.072886E-01
       2   -1    0    0  101    0  0.0000000000E+00  0.0000000000E+00  9.5202339071E+02  9.5202339071E+02  0.0000000000E+00 0. 9.
      -1   -1    0    0    0  101  0.0000000000E+00  0.0000000000E+00 -9.5605308762E+01  9.5605308762E+01  0.0000000000E+00 0. 9.
 1000024    2    1    2    0    0 -1.2946543311E+02  4.1926168130E+01  4.0649411580E+02  5.0609938943E+02  2.6903535800E+02 0. 9.
 1000023    2    1    2    0    0  1.2946543311E+02 -4.1926168130E+01  4.4992396614E+02  5.4152931004E+02  2.6889276000E+02 0. 9.
 1000022    1    3    0    0    0 -1.6032530346E+01  2.0889042632E+01  3.0641416335E+02  3.3348781113E+02  1.2896157000E+02 0. 9.
      24    2    3    0    0    0 -1.1343290276E+02  2.1037125499E+01  1.0007995245E+02  1.7261157830E+02  8.0431188000E+01 0. 9.
 1000022    1    4    0    0    0  2.2486664212E+01 -2.7336866805E+01  2.2154663522E+02  2.5877973736E+02  1.2896157000E+02 0. 9.
      25    2    4    0    0    0  1.0697876889E+02 -1.4589301325E+01  2.2837733093E+02  2.8274957268E+02  1.2701893900E+02 0. 9.
      -1    1    6    0    0  102 -7.3580683848E+01 -5.1817278289E+00  1.5303007558E+01  7.5334310106E+01  3.3000000000E-01 0. 9.
       2    1    6    0  102    0 -3.9852218911E+01  2.6218853327E+01  8.4776944893E+01  9.7277268194E+01  3.3000000000E-01 0. 9.
       5    1    8    0  103    0  3.6304105509E+01 -4.6307808491E+01  1.8422906388E+02  1.9345746091E+02  4.8000000000E+00 0. 9.
      -5    1    8    0    0  103  7.0674663384E+01  3.1718507166E+01  4.4148267043E+01  8.9292111770E+01  4.8000000000E+00 0. 9.
</event>
<event>
    12   226  1.000000E+00  2.802077E+02  7.862372E-03  1.083240E-01
      -1   -1    0    0    0  101  0.0000000000E+00  0.0000000000E+00  5.9214459671E+02  5.9214459671E+02  0.0000000000E+00 0. 9.
       1   -1    0    0  101    0  0.0000000000E+00  0.0000000000E+00 -1.3259688298E+02  1.3259688298E+02  0.0000000000E+00 0. 9.
 1000024    2    1    2    0    0  7.8292335008E+01 -2.5802394269E+00  2.2926211570E+02  3.6204625244E+02  2.6903535800E+02 0. 9.
-1000024    2    1    2    0    0 -7.8292335008E+01  2.5802394269E+00  2.3028559802E+02  3.6269522725E+02  2.6903535800E+02 0. 9.
 1000022    1    3    0    0    0 -3.5579238873E+01 -3.1903767207E+01  1.0555391116E+02  1.7336795350E+02  1.2896157000E+02 0. 9.
      24    2    3    0    0    0  1.1387157388E+02  2.9323527780E+01  1.2370820454E+02  1.8867829894E+02  8.0431188000E+01 0. 9.
 1000022    1    4    0    0    0  3.5105917168E+01 -1.7503844310E+01  7.8949157890E+01  1.5621416726E+02  1.2896157000E+02 0. 9.
     -24    2    4    0    0    0 -1.1339825218E+02  2.0084083737E+01  1.5133644013E+02  2.0648105998E+02  8.0431188000E+01 0. 9.
      -3    1    6    0    0  102  2.9604362344E+01  2.8495042276E+01  8.8038356588E+01  9.7156512570E+01  5.0000000000E-01 0. 9.
       4    1    6    0  102    0  8.4267211536E+01  8.2848550359E-01  3.5669847950E+01  9.1521786374E+01  1.5000000000E+00 0. 9.
       3    1    8    0  103    0  8.1936107489E+00  1.3175989339E+01  3.3917812103E+01  3.7301607607E+01  5.0000000000E-01 0. 9.
      -4    1    8    0    0  103 -1.2159186292E+02  6.9080943978E+00  1.1741862803E+02  1.6917945238E+02  1.5000000000E+00 0. 9.
</event>
<event>
    12   226  1.000000E+00  3.285556E+02  7.876563E-03  1.060919E-01
       2   -1    0    0  101    0  0.0000000000E+00  0.0000000000E+00  4.9244032543E+02  4.9244032543E+02  0.0000000000E+00 0. 9.
      -2   -1    0    0    0  101  0.0000000000E+00  0.0000000000E+00 -4.0282330467E+02  4.0282330467E+02  0.0000000000E+00 0. 9.
 1000024    2    1    2    0    0  1.8542903582E+02 -3.4421044117E+01 -2.5740475712E+02  4.1737988505E+02  2.6903535800E+02 0. 9.
-1000024    2    1    2    0    0 -1.8542903582E+02  3.4421044117E+01  3.4702177788E+02  4.7788374505E+02  2.6903535800E+02 0. 9.
 1000022    1    3    0    0    0  1.6006029629E+02  4.6680212826E+01 -1.7901618133E+02  2.7654334278E+02  1.2896157000E+02 0. 9.
      24    2    3    0    0    0  2.5368739531E+01 -8.1101256943E+01 -7.8388575783E+01  1.4083654227E+02  8.0431188000E+01 0. 9.
 1000022    1    4    0    0    0 -1.4780462544E+02  2.5087196819E+01  1.1381135869E+02  2.2816591913E+02  1.2896157000E+02 0. 9.
     -24    2    4    0    0    0 -3.7624410378E+01  9.3338472982E+00  2.3321041919E+02  2.4971782592E+02  8.0431188000E+01 0. 9.
      -1    1    6    0    0  102  1.8393438981E+01 -5.3707941492E+00  1.2075785342E+01  2.2651655987E+01  3.3000000000E-01 0. 9.
       2    1    6    0  102    0  6.9753005505E+00 -7.5730462794E+01 -9.0464361125E+01  1.1818488629E+02  3.3000000000E-01 0. 9.
       3    1    8    0  103    0 -4.7439857272E+01 -3.3233171934E+00  6.3956581901E+01  7.9701184832E+01  5.0000000000E-01 0. 9.
      -4    1    8    0    0  103  9.8154468942E+00  1.2657164492E+01  1.6925383729E+02  1.7001664109E+02  1.5000000000E+00 0. 9.
</event>
<event>
    28   258  1.000000E+00  9.324614E+02  7.970846E-03  9.347022E-02
      21   -1    0    0  101  102  0.0000000000E+00  0.0000000000E+00  1.2232705221E+03  1.2232705221E+03  0.0000000000E+00 0. 9.
      -2   -1    0    0    0  101  0.0000000000E+00  0.0000000000E+00 -7.1490396451E+02  7.1490396451E+02  0.0000000000E+00 0. 9.
 1000021    2    1    2  103  102  2.2406924046E+01  5.7419399448E+01  3.3530472698E+02  9.2979249572E+02  8.6503512500E+02 0. 9.
-1000002    2    1    2    0  103 -2.2406924046E+01 -5.7419399448E+01  1.7306183057E+02  1.0083819908E+03  9.9150632100E+02 0. 9.
 1000024    2    3    0    0    0 -1.4632047181E+02  1.2301777516E+02  2.0875138261E+02  3.9051276173E+02  2.6903535800E+02 0. 9.
      -6    2    3    0    0  102  5.3027116572E+01  7.1001004622E+01 -1.2444282618E+02  2.3094864091E+02  1.7320000000E+02 0. 9.
       5    1    3    0  103    0  1.1570027928E+02 -1.3659938034E+02  2.5099617055E+02  3.0833109309E+02  4.8000000000E+00 0. 9.
 1000021    2    4    0  104  103 -1.3069195390E+02 -7.6125054364E+01  1.1988818868E+02  8.8630376056E+02  8.6503512500E+02 0. 9.
      -2    1    4    0    0  104  1.0828502986E+02  1.8705654916E+01  5.3173641899E+01  1.2207823029E+02  3.3000000000E-01 0. 9.
 1000022    1    5    0    0    0 -9.7072092498E+01  7.9663376315E+00  4.1862191763E+01  1.6694305410E+02  1.2896157000E+02 0. 9.
      24    2    5    0    0    0 -4.9248379311E+01  1.1505143753E+02  1.6688919085E+02  2.2356970762E+02  8.0431188000E+01 0. 9.
     -24    2    6    0    0    0 -4.2414503943E+00  9.6265931080E+01 -5.4135801604E+01  1.3669301521E+02  8.0431188000E+01 0. 9.
      -5    1    6    0    0  102  5.7268566966E+01 -2.5264926459E+01 -7.0307024573E+01  9.4255625697E+01  4.8000000000E+00 0. 9.
 1000024    2    8    0    0    0  6.4655595673E+01  1.4196823108E+02  2.9857207706E+02  4.3111556890E+02  2.6903535800E+02 0. 9.
      -6    2    8    0    0  103 -9.5060522803E+01 -4.5475817679E+01 -2.7231952809E+01  2.0455897009E+02  1.7320000000E+02 0. 9.
       5    1    8    0  104    0 -1.0028702677E+02 -1.7261746777E+02 -1.5145193558E+02  2.5062922158E+02  4.8000000000E+00 0. 9.
     -15    1   11    0    0    0  2.2364641003E+01  2.7875779437E+01  4.4787512530E+01  5.7326392299E+01  1.7770000000E+00 0. 9.
      16    1   11    0    0    0 -7.1613020314E+01  8.7175658094E+01  1.2210167832E+02  1.6624331532E+02  0.0000000000E+00 0. 9.
      13    1   12    0    0    0 -3.0089863787E+01  5.9955690785E+01 -6.7041058321E-01  6.7086104184E+01  1.0566000000E-01 0. 9.
     -14    1   12    0    0    0  2.5848413393E+01  3.6310240295E+01 -5.3465391020E+01  6.9606911023E+01  0.0000000000E+00 0. 9.
 1000022    1   14    0    0    0  8.1166090896E+01  1.6485367852E+02  2.3321271082E+02  3.2370345172E+02  1.2896157000E+02 0. 9.
      24    2   14    0    0    0 -1.6510495223E+01 -2.2885447435E+01  6.5359366242E+01  1.0741211717E+02  8.0431188000E+01 0. 9.
     -24    2   15    0    0    0 -8.0585183054E+00 -6.4506545324E+01  1.7327020139E+01  1.0485912329E+02  8.0431188000E+01 0. 9.
      -5    1   15    0    0  103 -8.7002004497E+01  1.9030727645E+01 -4.4558972948E+01  9.9699846798E+01  4.8000000000E+00 0. 9.
     -13    1   22    0    0    0  6.3627946132E+00  1.3925044289E+01  6.2091135450E+01  6.3950858316E+01  1.0566000000E-01 0. 9.
      14    1   22    0    0    0 -2.2873289836E+01 -3.6810491725E+01  3.2682307919E+00  4.3461258857E+01  0.0000000000E+00 0. 9.
      13    1   23    0    0    0 -2.5280881790E+01 -2.9362077589E+01  4.3132398543E+01  5.7979906455E+01  1.0566000000E-01 0. 9.
     -14    1   23    0    0    0  1.7222363485E+01 -3.5144467736E+01 -2.5805378404E+01  4.6879216834E+01  0.0000000000E+00 0. 9.
</event>
<event>
    12   226  1.000000E+00  2.950246E+02  7.866960E-03  1.075912E-01
       2   -1    0    0  101    0  0.0000000000E+00  0.0000000000E+00  1.6456007634E+03  1.6456007634E+03  0.0000000000E+00 0. 9.
      -2   -1    0    0    0  101  0.0000000000E+00  0.0000000000E+00 -5.5211135083E+01  5.5211135083E+01  0.0000000000E+00 0. 9.
 1000024    2    1    2    0    0  1.2071840774E+02  9.3030770002E+00  9.6947732670E+02  1.0133734712E+03  2.6903535800E+02 0. 9.
-1000024    2    1    2    0    0 -1.2071840774E+02 -9.3030770002E+00  6.2091230162E+02  6.8743842733E+02  2.6903535800E+02 0. 9.
 1000022    1    3    0    0    0  4.3166049101E+01  6.5932198543E+01  3.4804913096E+02  3.7944650045E+02  1.2896157000E+02 0. 9.
      24    2    3    0    0    0  7.7552358637E+01 -5.6629121543E+01  6.2142819574E+02  6.3392697071E+02  8.0431188000E+01 0. 9.
 1000022    1    4    0    0    0 -4.7551201683E+01  7.1254052837E+01  2.6849922919E+02  3.0993737987E+02  1.2896157000E+02 0. 9.
     -24    2    4    0    0    0 -7.3167206056E+01 -8.0557129837E+01  3.5241307243E+02  3.7750104746E+02  8.0431188000E+01 0. 9.
     -13    1    6    0    0    0  6.6856606679E+01 -5.3221777700E+01  2.9048648031E+02  3.0279493042E+02  1.0566000000E-01 0. 9.
      14    1    6    0    0    0  1.0695751959E+01 -3.4073438432E+00  3.3094171542E+02  3.3113204030E+02  0.0000000000E+00 0. 9.
       3    1    8    0  102    0 -6.2733764583E+00 -2.2266077656E+00 -3.1019283449E+00  7.3610456993E+00  5.0000000000E-01 0. 9.
      -4    1    8    0    0  102 -6.6893829597E+01 -7.8330522072E+01  3.5551500078E+02  3.7014000176E+02  1.5000000000E+00 0. 9.
</event>
<event>
    15   276  1.000000E+00  1.254043E+03  7.998040E-03  9.041479E-02
      -4   -1    0    0    0  101  0.0000000000E+00  0.0000000000E+00  9.7671350200E+02  9.7671350200E+02  0.0000000000E+00 0. 9.
       1   -1    0    0  101    0  0.0000000000E+00  0.0000000000E+00 -1.7998431922E+03  1.7998431922E+03  0.0000000000E+00 0. 9.
-2000004    2    1    2    0  102 -8.5168807571E+01  7.6137898585E+02  3.9523171378E+01  1.2534702733E+03  9.9129912700E+02 0. 9.
 1000001    2    1    2  102    0  8.5168807571E+01 -7.6137898585E+02 -8.6265286156E+02  1.5230864208E+03  9.9431916400E+02 0. 9.
 1000021    2    3    0  103  102  2.9795709618E+01  6.5543160597E+02  8.9343293495E+01  1.0893788900E+03  8.6503512500E+02 0. 9.
      -4    1    3    0    0  103 -1.1496451719E+02  1.0594737988E+02 -4.9820122116E+01  1.6409138333E+02  1.5000000000E+00 0. 9.
-1000024    2    4    0    0    0 -2.5073167158E+02  1.2630476947E+01 -8.9572093341E+01  3.7872032404E+02  2.6903535800E+02 0. 9.
       2    1    4    0  102    0  3.3590047916E+02 -7.7400946280E+02 -7.7308076822E+02  1.1443660968E+03  3.3000000000E-01 0. 9.
 1000022    1    5    0    0    0  1.4473802792E+02  1.6333666249E+02  2.4488731086E+00  2.5350551386E+02  1.2896157000E+02 0. 9.
       1    1    5    0  103    0 -2.7248654484E+02  5.8541264536E+02  9.4538992643E+01  6.5260601629E+02  3.3000000000E-01 0. 9.
      -1    1    5    0    0  102  1.5754422654E+02 -9.3317701889E+01 -7.6445722563E+00  1.8326735985E+02  3.3000000000E-01 0. 9.
 1000022    1    7    0    0    0 -1.5881709626E+02  7.2318967159E+01 -1.9700162818E+00  2.1699739762E+02  1.2896157000E+02 0. 9.
     -24    2    7    0    0    0 -9.1914575327E+01 -5.9688490212E+01 -8.7602077059E+01  1.6172292642E+02  8.0431188000E+01 0. 9.
       3    1   13    0  104    0 -6.2110363113E+01 -3.6165908984E-01 -6.8826994875E+01  9.2710480674E+01  5.0000000000E-01 0. 9.
      -4    1   13    0    0  104 -2.9804212215E+01 -5.9326831122E+01 -1.8775082184E+01  6.9012445745E+01  1.5000000000E+00 0. 9.
</event>
<event>
    12   226  1.000000E+00  3.990587E+02  7.893965E-03  1.034875E-01
       2   -1    0    0  101    0  0.0000000000E+00  0.0000000000E+00  6.8149001149E+02  6.8149001149E+02  0.0000000000E+00 0. 9.
      -2   -1    0    0    0  101  0.0000000000E+00  0.0000000000E+00 -2.4397906544E+02  2.4397906544E+02  0.0000000000E+00 0. 9.
 1000024    2    1    2    0    0  2.3848316598E+02 -1.7318672214E+02  3.1384618241E+02  5.0768820279E+02  2.6903535800E+02 0. 9.
-1000024    2    1    2    0    0 -2.3848316598E+02  1.7318672214E+02  1.2366476364E+02  4.1778087414E+02  2.6903535800E+02 0. 9.
 1000022    1    3    0    0    0  1.0706976308E+02 -1.4961909269E+02  2.5800379038E+02  3.4212110349E+02  1.2896157000E+02 0. 9.
      24    2    3    0    0    0  1.3141340290E+02 -2.3567629452E+01  5.5842392029E+01  1.6556709930E+02  8.0431188000E+01 0. 9.
 1000022    1    4    0    0    0 -2.0262618595E+02  1.9378371201E+02  9.4433006467E+01  3.2273546058E+02  1.2896157000E+02 0. 9.
     -24    2    4    0    0    0 -3.5856980035E+01 -2.0596989868E+01  2.9231757170E+01  9.5045413562E+01  8.0431188000E+01 0. 9.
     -13    1    6    0    0    0  4.4240811969E+01 -7.6285042032E-01  6.0948470069E+01  7.5316389666E+01  1.0566000000E-01 0. 9.
      14    1    6    0    0    0  8.7172590934E+01 -2.2804779032E+01 -5.1060780402E+00  9.0250709636E+01  0.0000000000E+00 0. 9.
       1    1    8    0  102    0  1.0059241391E+00  2.6954898123E+01 -2.3768873433E+00  2.7080194048E+01  3.3000000000E-01 0. 9.
      -2    1    8    0    0  102 -3.6862904174E+01 -4.7551887991E+01  3.1608644514E+01  6.7965219515E+01  3.3000000000E-01 0. 9.
</event>
<event>
    18   244  1.000000E+00  9.244589E+02  7.970058E-03  9.356219E-02
      21   -1    0    0  101  102  0.0000000000E+00  0.0000000000E+00  1.5894818886E+03  1.5894818886E+03  0.0000000000E+00 0. 9.
      21   -1    0    0  103  101  0.0000000000E+00  0.0000000000E+00 -7.6199773999E+02  7.6199773999E+02  0.0000000000E+00 0. 9.
 1000021    2    1    2  104  102 -2.8848456320E+01 -3.2481734754E+02  1.0516694736E+03  1.4002260503E+03  8.6503512500E+02 0. 9.
 1000021    2    1    2  103  104  2.8848456320E+01  3.2481734754E+02 -2.2418532505E+02  9.5125357826E+02  8.6503512500E+02 0. 9.
 1000024    2    3    0    0    0 -9.0316671978E+01 -2.9698307788E+02  6.1370052522E+02  7.3848792020E+02  2.6903535800E+02 0. 9.
      -4    1    3    0    0  102 -2.7475103296E+01  1.4886302113E+02  4.3852158184E+02  4.6391648828E+02  1.5000000000E+00 0. 9.
       3    1    3    0  104    0  8.8943318954E+01 -1.7669729079E+02 -5.5263345194E-01  1.9782164180E+02  5.0000000000E-01 0. 9.
 1000024    2    4    0    0    0 -1.8473843498E+02  1.1802194197E+02 -1.8582193921E+02  3.9365884353E+02  2.6903535800E+02 0. 9.
      -4    1    4    0    0  104  8.9222097119E+01  3.4374404208E+02 -8.8362914776E+01  3.6596557732E+02  1.5000000000E+00 0. 9.
       3    1    4    0  103    0  1.2436479418E+02 -1.3694863651E+02  4.9999528938E+01  1.9162915740E+02  5.0000000000E-01 0. 9.
 1000022    1    5    0    0    0 -1.1873216320E+02 -2.5803960515E+02  5.1674461364E+02  6.0360404792E+02  1.2896157000E+02 0. 9.
      24    2    5    0    0    0  2.8415491220E+01 -3.8943472726E+01  9.6955911572E+01  1.3488387228E+02  8.0431188000E+01 0. 9.
 1000022    1    8    0    0    0 -6.2433151728E+01 -6.1540737672E+00 -1.3047309272E+02  1.9388162760E+02  1.2896157000E+02 0. 9.
      24    2    8    0    0    0 -1.2230528325E+02  1.2417601574E+02 -5.5348846488E+01  1.9977721593E+02  8.0431188000E+01 0. 9.
      -1    1   12    0    0  105  3.0188827026E+01 -5.8483226959E+01  9.4423877393E+01  1.1509835201E+02  3.3000000000E-01 0. 9.
       2    1   12    0  105    0 -1.7733358064E+00  1.9539754233E+01  2.5320341793E+00  1.9785520273E+01  3.3000000000E-01 0. 9.
      -3    1   14    0    0  106 -1.0497079686E+02  5.4042634657E+01 -2.1604715928E+01  1.2002703156E+02  5.0000000000E-01 0. 9.
       4    1   14    0  106    0 -1.7334486385E+01  7.0133381084E+01 -3.3744130560E+01  7.9750184375E+01  1.5000000000E+00 0. 9.
</event>
<event>
    16   259  1.000000E+00  1.036609E+03  7.980543E-03  9.235494E-02
       2   -1    0    0  101    0  0.0000000000E+00  0.0000000000E+00  2.0426974090E+03  2.0426974090E+03  0.0000000000E+00 0. 9.
      21   -1    0    0  102  101  0.0000000000E+00  0.0000000000E+00 -5.9749333883E+02  5.9749333883E+02  0.0000000000E+00 0. 9.
 2000002    2    1    2  103    0 -5.7654922900E-01  4.5725084324E+02  2.9643429241E+02  1.1312055140E+03  9.9129912700E+02 0. 9.
 1000021    2    1    2  102  103  5.7654922900E-01 -4.5725084324E+02  1.1487697778E+03  1.5089852338E+03  8.6503512500E+02 0. 9.
 1000021    2    3    0  103  104 -8.5242459179E+00  2.9050755072E+02  3.0988081505E+02  9.6373190609E+02  8.6503512500E+02 0. 9.
       2    1    3    0  104    0  7.9476966889E+00  1.6674329252E+02 -1.3446522639E+01  1.6747360794E+02  3.3000000000E-01 0. 9.
 1000023    2    4    0    0    0 -7.2431762468E+01 -2.1004085035E+02  3.5885634313E+02  5.0044451282E+02  2.6889276000E+02 0. 9.
       4    1    4    0  102    0  1.9656417466E+02  1.2344005551E+02  3.5231910004E+02  4.2190747839E+02  1.5000000000E+00 0. 9.
      -4    1    4    0    0  103 -1.2355586297E+02 -3.7065004840E+02  4.3759433460E+02  5.8663324260E+02  1.5000000000E+00 0. 9.
 1000022    1    5    0    0    0  2.6833992145E+02  3.0857816067E+02 -8.7331938222E+01  4.3758970356E+02  1.2896157000E+02 0. 9.
       4    1    5    0  103    0 -1.0979780548E+02  4.8850969270E+01  4.0896892641E+01  1.2695188504E+02  1.5000000000E+00 0. 9.
      -4    1    5    0    0  104 -1.6706636189E+02 -6.6921579224E+01  3.5631586063E+02  3.9919031749E+02  1.5000000000E+00 0. 9.
 1000022    1    7    0    0    0  5.3228881183E+00 -8.8338994662E+01  1.6594951661E+02  2.2804043438E+02  1.2896157000E+02 0. 9.
      25    2    7    0    0    0 -7.7754650586E+01 -1.2170185569E+02  1.9290682652E+02  2.7240407844E+02  1.2701893900E+02 0. 9.
       5    1   14    0  105    0 -6.9668272143E+01 -1.3031500774E+02  2.0636711884E+02  2.5386235862E+02  4.8000000000E+00 0. 9.
      -5    1   14    0    0  105 -8.0863784425E+00  8.6131520529E+00 -1.3460292316E+01  1.8541719818E+01  4.8000000000E+00 0. 9.
</event>
<event>
    12   230  1.000000E+00  3.630658E+02  7.885494E-03  1.047377E-01
      -2   -1    0    0    0  101  0.0000000000E+00  0.0000000000E+00  3.3259322598E+02  3.3259322598E+02  0.0000000000E+00 0. 9.
       1   -1    0    0  101    0  0.0000000000E+00  0.0000000000E+00 -4.1054413167E+02  4.1054413167E+02  0.0000000000E+00 0. 9.
-1000024    2    1    2    0    0  4.3039685061E+01  2.4004720582E+02 -1.0811881973E+02  3.7887303750E+02  2.6903535800E+02 0. 9.
 1000023    2    1    2    0    0 -4.3039685061E+01 -2.4004720582E+02  3.0167914044E+01  3.6426432015E+02  2.6889276000E+02 0. 9.
 1000022    1    3    0    0    0 -3.6362354591E+01  7.2371443519E+01 -8.7450907805E+01  1.7560920956E+02  1.2896157000E+02 0. 9.
     -24    2    3    0    0    0  7.9402039652E+01  1.6767576230E+02 -2.0667911922E+01  2.0326382795E+02  8.0431188000E+01 0. 9.
 1000022    1    4    0    0    0 -5.8825517763E+00 -1.1154229126E+02  5.2371526633E+01  1.7846610460E+02  1.2896157000E+02 0. 9.
      25    2    4    0    0    0 -3.7157133285E+01 -1.2850491457E+02 -2.2203612589E+01  1.8579821554E+02  1.2701893900E+02 0. 9.
       1    1    6    0  102    0  7.5964175123E+01  8.4121614887E+01  1.0923141220E+01  1.1387021519E+02  3.3000000000E-01 0. 9.
      -2    1    6    0    0  102  3.4378645295E+00  8.3554147416E+01 -3.1591053142E+01  8.9393612756E+01  3.3000000000E-01 0. 9.
      21    1    8    0  103  104 -6.0236061348E+01 -2.7656650434E+01 -4.4673023101E+01  7.9930922632E+01  0.0000000000E+00 0. 9.
      21    1    8    0  104  103  2.3078928063E+01 -1.0084826413E+02  2.2469410511E+01  1.0586729291E+02  0.0000000000E+00 0. 9.
</event>
<event>
    12   230  1.000000E+00  5.873232E+02  7.928788E-03  9.867226E-02
      -1   -1    0    0    0  101  0.0000000000E+00  0.0000000000E+00  2.7274464582E+02  2.7274464582E+02  0.0000000000E+00 0. 9.
       2   -1    0    0  101    0  0.0000000000E+00  0.0000000000E+00 -1.2903091360E+03  1.2903091360E+03  0.0000000000E+00 0. 9.
 1000023    2    1    2    0    0 -4.1016802514E+02  3.2306200634E+02 -6.1879024085E+02  8.5311871819E+02  2.6889276000E+02 0. 9.
 1000024    2    1    2    0    0  4.1016802514E+02 -3.2306200634E+02 -3.9877424936E+02  7.0993506364E+02  2.6903535800E+02 0. 9.
 1000022    1    3    0    0    0 -1.4347285882E+02  1.1403752555E+02 -2.0919005929E+02  3.0656253179E+02  1.2896157000E+02 0. 9.
      25    2    3    0    0    0 -2.6669516631E+02  2.0902448079E+02 -4.0960018156E+02  5.4655618641E+02  1.2701893900E+02 0. 9.
 1000022    1    4    0    0    0  9.4785637643E+01 -7.8729079167E+01 -9.5013289587E+01  2.0209205018E+02  1.2896157000E+02 0. 9.
      24    2    4    0    0    0  3.1538238749E+02 -2.4433292717E+02 -3.0376095977E+02  5.0784301346E+02  8.0431188000E+01 0. 9.
       5    1    6    0  102    0 -1.9934324789E+02  2.1546352598E+02 -3.2151565653E+02  4.3538215271E+02  4.8000000000E+00 0. 9.
      -5    1    6    0    0  102 -6.7351918420E+01 -6.4390451950E+00 -8.8084525030E+01  1.1117403369E+02  4.8000000000E+00 0. 9.
     -11    1    8    0    0    0  1.8853204955E+02 -1.4756829709E+02 -1.3191710727E+02  2.7335482290E+02  5.1000000000E-04 0. 9.
      12    1    8    0    0    0  1.2685033795E+02 -9.6764630082E+01 -1.7184385250E+02  2.3448819056E+02  0.0000000000E+00 0. 9.
</event>
<event>
    15   241  1.000000E+00  7.692550E+02  7.953286E-03  9.556735E-02
      -1   -1    0    0    0  101  0.0000000000E+00  0.0000000000E+00  3.4308841897E+02  3.4308841897E+02  0.0000000000E+00 0. 9.
       2   -1    0    0  102    0  0.0000000000E+00  0.0000000000E+00 -1.8309798573E+03  1.8309798573E+03  0.0000000000E+00 0. 9.
 1000021    2    1    2  102  101  4.1347193322E+02  1.0228059604E+02 -1.3365310756E+03  1.6480356317E+03  8.6503512500E+02 0. 9.
 1000024    2    1    2    0    0 -4.1347193322E+02 -1.0228059604E+02 -1.5136036275E+02  5.2603264457E+02  2.6903535800E+02 0. 9.
-1000024    2    3    0    0    0 -2.4306908880E+01 -3.9893538725E+01 -9.2006222361E+01  2.8814490983E+02  2.6903535800E+02 0. 9.
       2    1    3    0  102    0  1.4420426059E+02 -7.5671699144E+01 -2.3249495487E+02  2.8385751313E+02  3.3000000000E-01 0. 9.
      -1    1    3    0    0  101  2.9357458151E+02  2.1784583391E+02 -1.0120298984E+03  1.0760332088E+03  3.3000000000E-01 0. 9.
 1000022    1    4    0    0    0 -2.0433930812E+02 -1.3579533716E+02 -7.9514757335E+01  2.8835500621E+02  1.2896157000E+02 0. 9.
      24    2    4    0    0    0 -2.0913262510E+02  3.3514741122E+01 -7.1845605411E+01  2.3767763836E+02  8.0431188000E+01 0. 9.
 1000022    1    5    0    0    0 -7.1561442161E+01 -8.1420648806E+01 -3.8280436156E+01  1.7276238128E+02  1.2896157000E+02 0. 9.
     -24    2    5    0    0    0  4.7254533282E+01  4.1527110081E+01 -5.3725786206E+01  1.1538252855E+02  8.0431188000E+01 0. 9.
      -3    1    9    0    0  103 -2.1074392979E+02  3.7228315949E+01 -7.9983417184E+01  2.2846563959E+02  5.0000000000E-01 0. 9.
       4    1    9    0  103    0  1.6113046823E+00 -3.7135748274E+00  8.1378117736E+00  9.2119987646E+00  1.5000000000E+00 0. 9.
       1    1   11    0  104    0  6.4656247795E+01  1.0135740445E+01 -2.7806546916E+01  7.1108906367E+01  3.3000000000E-01 0. 9.
      -2    1   11    0    0  104 -1.7401714513E+01  3.1391369635E+01 -2.5919239290E+01  4.4273622180E+01  3.3000000000E-01 0. 9.
</event>
<event>
    21   258  1.000000E+00  9.647432E+02  7.973960E-03  9.310880E-02
       2   -1    0    0  101    0  0.0000000000E+00  0.0000000000E+00  8.9673543075E+02  8.9673543075E+02  0.0000000000E+00 0. 9.
      21   -1    0    0  102  101  0.0000000000E+00  0.0000000000E+00 -1.0506232037E+03  1.0506232037E+03  0.0000000000E+00 0. 9.
 1000002    2    1    2  103    0  5.7653459154E+01 -2.4843574682E+02 -2.0483732500E+02  1.0440724860E+03  9.9150632100E+02 0. 9.
 1000021    2    1    2  102  103 -5.7653459154E+01  2.4843574682E+02  5.0949552071E+01  9.0328614845E+02  8.6503512500E+02 0. 9.
 1000023    2    3    0    0    0 -4.1588235039E+02 -2.2229842913E+02 -1.6864982662E+02  5.6843715692E+02  2.6889276000E+02 0. 9.
       2    1    3    0  103    0  4.7353580955E+02 -2.6137317685E+01 -3.6187498375E+01  4.7563532905E+02  3.3000000000E-01 0. 9.
 1000024    2    4    0    0    0 -2.1726484524E+01  2.2064299733E+02  3.0221177568E+02  4.6137550175E+02  2.6903535800E+02 0. 9.
      -6    2    4    0    0  103 -1.1256299210E+01 -4.7679911048E+01 -1.7276846907E+00  1.8000361964E+02  1.7320000000E+02 0. 9.
       5    1    4    0  102    0 -2.4670675419E+01  7.5472660537E+01 -2.4953453892E+02  2.6190702707E+02  4.8000000000E+00 0. 9.
 1000022    1    5    0    0    0 -2.0792719003E+02 -1.4346126767E+02 -5.8289982604E+01  2.8955769768E+02  1.2896157000E+02 0. 9.
      25    2    5    0    0    0 -2.0795516036E+02 -7.8837161463E+01 -1.1035984402E+02  2.7887945924E+02  1.2701893900E+02 0. 9.
 1000022    1    7    0    0    0  1.6161043040E+01  1.9269236845E+02  2.8300939711E+02  3.6621978860E+02  1.2896157000E+02 0. 9.
      24    2    7    0    0    0 -3.7887527564E+01  2.7950628879E+01  1.9202378571E+01  9.5155713152E+01  8.0431188000E+01 0. 9.
     -24    2    8    0    0    0 -2.1658758568E+01 -7.9515215108E+01 -4.6239295496E+01  1.2409278669E+02  8.0431188000E+01 0. 9.
      -5    1    8    0    0  103  1.0402459358E+01  3.1835304060E+01  4.4511610805E+01  5.5910832955E+01  4.8000000000E+00 0. 9.
       5    1   11    0  104    0 -3.7331923746E+01 -2.6874192935E+01 -8.7533540246E+01  9.9000280022E+01  4.8000000000E+00 0. 9.
      -5    1   11    0    0  104 -1.7062323662E+02 -5.1962968528E+01 -2.2826303773E+01  1.7987917922E+02  4.8000000000E+00 0. 9.
      -1    1   13    0    0  105  7.7623068469E+00  2.2084772804E+01  3.8651404664E+01  4.5188832469E+01  3.3000000000E-01 0. 9.
       2    1   13    0  105    0 -4.5649834411E+01  5.8658560754E+00 -1.9449026093E+01  4.9966880683E+01  3.3000000000E-01 0. 9.
       1    1   14    0  106    0 -6.6085432737E+00  9.3239144009E+00  1.2180853885E+01  1.6705996688E+01  3.3000000000E-01 0. 9.
      -2    1   14    0    0  106 -1.5050215295E+01 -8.8839129509E+01 -5.8420149381E+01  1.0738679000E+02  3.3000000000E-01 0. 9.
</event>
<event>
    12   230  1.000000E+00  3.078637E+02  7.870758E-03  1.069929E-01
      -1   -1    0    0    0  101  0.0000000000E+00  0.0000000000E+00  7.7333109277E+01  7.7333109277E+01  0.0000000000E+00 0. 9.
       2   -1    0    0  101    0  0.0000000000E+00  0.0000000000E+00 -2.0776017771E+03  2.0776017771E+03  0.0000000000E+00 0. 9.
 1000023    2    1    2    0    0 -9.9232749724E+00 -1.4946546975E+02 -1.6900025059E+03  1.7178038841E+03  2.6889276000E+02 0. 9.
 1000024    2    1    2    0    0  9.9232749724E+00  1.4946546975E+02 -3.1026616193E+02  4.3713100225E+02  2.6903535800E+02 0. 9.
 1000022    1    3    0    0    0  1.3247799582E-01 -3.1704191617E+01 -6.4990229065E+02  6.6333192841E+02  1.2896157000E+02 0. 9.
      25    2    3    0    0    0 -1.0055752968E+01 -1.1776127813E+02 -1.0401002153E+03  1.0544719557E+03  1.2701893900E+02 0. 9.
 1000022    1    4    0    0    0 -2.7338937579E+01  3.8879911742E+01 -6.0957098745E+01  1.5035265036E+02  1.2896157000E+02 0. 9.
      24    2    4    0    0    0  3.7262212552E+01  1.1058555800E+02 -2.4930906319E+02  2.8677835189E+02  8.0431188000E+01 0. 9.
     -15    1    6    0    0    0  8.2601003727E+00  8.4270272611E+00 -7.6471783425E+00  1.4173253410E+01  1.7770000000E+00 0. 9.
      15    1    6    0    0    0 -1.8315853341E+01 -1.2618830539E+02 -1.0324530369E+03  1.0402987023E+03  1.7770000000E+00 0. 9.
      -1    1    8    0    0  102 -3.0159722860E+00  9.0451041809E+01 -2.0261129792E+02  2.2190523653E+02  3.3000000000E-01 0. 9.
       2    1    8    0  102    0  4.0278184838E+01  2.0134516195E+01 -4.6697765269E+01  6.4873115367E+01  3.3000000000E-01 0. 9.
</event>
<event>
    17   258  1.000000E+00  1.105093E+03  7.986413E-03  9.169389E-02
       1   -1    0    0  101    0  0.0000000000E+00  0.0000000000E+00  7.2660698988E+02  7.2660698988E+02  0.0000000000E+00 0. 9.
      21   -1    0    0  102  101  0.0000000000E+00  0.0000000000E+00 -1.6869594458E+03  1.6869594458E+03  0.0000000000E+00 0. 9.
 1000001    2    1    2  103    0 -1.7891573385E+02 -5.6633954403E+02 -5.9794766704E+02  1.3034428761E+03  9.9431916400E+02 0. 9.
 1000021    2    1    2  102  103  1.7891573385E+02  5.6633954403E+02 -3.6240478887E+02  1.1101235595E+03  8.6503512500E+02 0. 9.
-1000024    2    3    0    0    0 -6.8667763122E+01 -5.3888939902E+02 -8.4008658876E+02  1.0359742017E+03  2.6903535800E+02 0. 9.
       2    1    3    0  103    0 -1.1024797073E+02 -2.7450145006E+01  2.4213892172E+02  2.6746867447E+02  3.3000000000E-01 0. 9.
 1000023    2    4    0    0    0  2.1341641591E+02 -5.4518071262E+00  8.2879029449E+01  3.5319759156E+02  2.6889276000E+02 0. 9.
       1    1    4    0  102    0 -4.6662792694E+01  2.4979779671E+02 -7.2657350628E+01  2.6430201468E+02  3.3000000000E-01 0. 9.
      -1    1    4    0    0  103  1.2162110640E+01  3.2199355445E+02 -3.7262646769E+02  4.9262395330E+02  3.3000000000E-01 0. 9.
 1000022    1    5    0    0    0 -4.3315870291E+01 -4.8783848121E+02 -6.7817630827E+02  8.4641410669E+02  1.2896157000E+02 0. 9.
     -24    2    5    0    0    0 -2.5351892831E+01 -5.1050917810E+01 -1.6191028049E+02  1.8956009498E+02  8.0431188000E+01 0. 9.
 1000022    1    7    0    0    0  1.4694866976E+02 -2.0167888357E+01  2.5978950287E+01  1.9825904181E+02  1.2896157000E+02 0. 9.
      25    2    7    0    0    0  6.6467746151E+01  1.4716081231E+01  5.6900079162E+01  1.5493854975E+02  1.2701893900E+02 0. 9.
      11    1   11    0    0    0 -2.7207336193E+01 -6.5446579785E+00 -1.3422889913E+02  1.3711480246E+02  5.1000000000E-04 0. 9.
     -12    1   11    0    0    0  1.8554433624E+00 -4.4506259831E+01 -2.7681381355E+01  5.2445292524E+01  0.0000000000E+00 0. 9.
       5    1   13    0  104    0 -2.8131822777E+01  3.3253426374E+01  1.9266366606E+00  4.3862760368E+01  4.8000000000E+00 0. 9.
      -5    1   13    0    0  104  9.4599568928E+01 -1.8537345142E+01  5.4973442501E+01  1.1107578938E+02  4.8000000000E+00 0. 9.
</event>
<event>
    15   272  1.000000E+00  1.030537E+03  7.980004E-03  9.241612E-02
       1   -1    0    0  101    0  0.0000000000E+00  0.0000000000E+00  1.6544715414E+03  1.6544715414E+03  0.0000000000E+00 0. 9.
       2   -1    0    0  102    0  0.0000000000E+00  0.0000000000E+00 -9.3887632377E+02  9.3887632377E+02  0.0000000000E+00 0. 9.
 2000001    2    1    2  102    0 -2.2829551738E+02 -1.6373771078E+02  1.0871122254E+03  1.4980726817E+03  9.9170554500E+02 0. 9.
 2000002    2    1    2  101    0  2.2829551738E+02  1.6373771078E+02 -3.7151700776E+02  1.0952751834E+03  9.9129912700E+02 0. 9.
 1000021    2    3    0  102  103 -1.5764617855E+02 -9.2514905485E+01  1.0824571047E+03  1.3976446173E+03  8.6503512500E+02 0. 9.
       1    1    3    0  103    0 -7.0649338832E+01 -7.1222805299E+01  4.6551206869E+00  1.0042806441E+02  3.3000000000E-01 0. 9.
 1000022    1    4    0    0    0  3.9737193244E+02  2.5724860288E+02 -6.1354173759E+02  7.8558630759E+02  1.2896157000E+02 0. 9.
       2    1    4    0  101    0 -1.6907641505E+02 -9.3510892096E+01  2.4202472983E+02  3.0968887584E+02  3.3000000000E-01 0. 9.
 1000024    2    5    0    0    0 -2.5972792688E+02 -3.8964449413E+02  6.4875015945E+02  8.4411979070E+02  2.6903535800E+02 0. 9.
      -2    1    5    0    0  103  4.3958763003E+01  2.5253772414E+02  2.6053454592E+02  3.6549423180E+02  3.3000000000E-01 0. 9.
       1    1    5    0  102    0  5.8122985327E+01  4.4591864504E+01  1.7317239931E+02  1.8803059481E+02  3.3000000000E-01 0. 9.
 1000022    1    9    0    0    0 -1.6512056243E+02 -2.7173199674E+02  5.4464553311E+02  6.4371804500E+02  1.2896157000E+02 0. 9.
      24    2    9    0    0    0 -9.4607364449E+01 -1.1791249739E+02  1.0410462634E+02  2.0040174570E+02  8.0431188000E+01 0. 9.
      -1    1   13    0    0  104 -9.5883503928E+01 -7.6553702923E+01  1.0097631061E+02  1.5890387019E+02  3.3000000000E-01 0. 9.
       2    1   13    0  104    0  1.2761394791E+00 -4.1358794470E+01  3.1283157246E+00  4.1497875503E+01  3.3000000000E-01 0. 9.
</event>
<event>
    12   230  1.000000E+00  3.518066E+02  7.882675E-03  1.051611E-01
       2   -1    0    0  101    0  0.0000000000E+00  0.0000000000E+00  4.5398290642E+02  4.5398290642E+02  0.0000000000E+00 0. 9.
      -1   -1    0    0    0  101  0.0000000000E+00  0.0000000000E+00 -4.4149451438E+02  4.4149451438E+02  0.0000000000E+00 0. 9.
 1000024    2    1    2    0    0  1.2763964082E+02 -1.8744164545E+02  2.8315264723E+02  4.5164332592E+02  2.6903535800E+02 0. 9.
 1000023    2    1    2    0    0 -1.2763964082E+02  1.8744164545E+02 -2.7066425519E+02  4.4383409488E+02  2.6889276000E+02 0. 9.
 1000022    1    3    0    0    0  4.7236408961E+01 -5.1139897927E+01  2.1772499098E+02  2.6245347345E+02  1.2896157000E+02 0. 9.
      24    2    3    0    0    0  8.0403231859E+01 -1.3630174752E+02  6.5427656250E+01  1.8918985247E+02  8.0431188000E+01 0. 9.
 1000022    1    4    0    0    0 -1.6417942934E+01  1.3427973454E+02 -2.0388714472E+02  2.7658931699E+02  1.2896157000E+02 0. 9.
      23    2    4    0    0    0 -1.1122169789E+02  5.3161910914E+01 -6.6777110477E+01  1.6724477789E+02  9.1187600000E+01 0. 9.
      -1    1    6    0    0  102  2.3597164805E+01 -8.4086196439E+01  6.9955540683E+01  1.1189817331E+02  3.3000000000E-01 0. 9.
       2    1    6    0  102    0  5.6806067054E+01 -5.2215551084E+01 -4.5278844329E+00  7.7291679155E+01  3.3000000000E-01 0. 9.
       2    1    8    0  103    0 -1.2285948303E+02  3.0505753322E+01 -4.7143968087E+01  1.3508410781E+02  3.3000000000E-01 0. 9.
      -2    1    8    0    0  103  1.1637785139E+01  2.2656157593E+01 -1.9633142390E+01  3.2160670079E+01  3.3000000000E-01 0. 9.
</event>
<event>
     6   247  1.000000E+00  1.071872E+03  7.983611E-03  9.200809E-02
      21   -1    0    0  101  102  0.0000000000E+00  0.0000000000E+00  4.6601920556E+02  4.6601920556E+02  0.0000000000E+00 0. 9.
       2   -1    0    0  102    0  0.0000000000E+00  0.0000000000E+00 -2.9456940079E+03  2.9456940079E+03  0.0000000000E+00 0. 9.
 1000022    1    1    2    0    0  6.9409529714E+02 -4.0925395052E+02 -1.7730852403E+03  1.9518502590E+03  1.2896157000E+02 0. 9.
 2000002    2    1    2  101    0 -6.9409529714E+02  4.0925395052E+02 -7.0658956202E+02  1.4598629545E+03  9.9129912700E+02 0. 9.
 1000022    1    4    0    0    0  2.0898454800E+02 -5.8443357665E+01 -7.7684116953E+01  2.6411375565E+02  1.2896157000E+02 0. 9.
       2    1    4    0  101    0 -9.0307984514E+02  4.6769730818E+02 -6.2890544506E+02  1.1957491988E+03  3.3000000000E-01 0. 9.
</event>
<event>
    12   230  1.000000E+00  4.225931E+02  7.899109E-03  1.027441E-01
      -1   -1    0    0    0  101  0.0000000000E+00  0.0000000000E+00  6.7730446516E+02  6.7730446516E+02  0.0000000000E+00 0. 9.
       2   -1    0    0  101    0  0.0000000000E+00  0.0000000000E+00 -2.7259367501E+02  2.7259367501E+02  0.0000000000E+00 0. 9.
 1000023    2    1    2    0    0  3.0985123367E+02 -1.0117041040E+02  2.8826731001E+02  5.1151206960E+02  2.6889276000E+02 0. 9.
 1000024    2    1    2    0    0 -3.0985123367E+02  1.0117041040E+02  1.1644348014E+02  4.3838607057E+02  2.6903535800E+02 0. 9.
 1000022    1    3    0    0    0  1.8660159706E+02 -2.2931475414E+01  1.3787018824E+02  2.6643063625E+02  1.2896157000E+02 0. 9.
      25    2    3    0    0    0  1.2324963661E+02 -7.8238934990E+01  1.5039712177E+02  2.4508143335E+02  1.2701893900E+02 0. 9.
 1000022    1    4    0    0    0 -2.1252327539E+02 -1.6016793419E+01  5.2085898071E+01  2.5449304032E+02  1.2896157000E+02 0. 9.
      24    2    4    0    0    0 -9.7327958274E+01  1.1718720382E+02  6.4357582066E+01  1.8389303025E+02  8.0431188000E+01 0. 9.
       5    1    6    0  102    0  1.0594797923E+02 -9.1856881103E+01  1.6623970417E+02  2.1753468723E+02  4.8000000000E+00 0. 9.
      -5    1    6    0    0  102  1.7301657381E+01  1.3617946113E+01 -1.5842582401E+01  2.7546746116E+01  4.8000000000E+00 0. 9.
      -1    1    8    0    0  103 -4.8307976798E+01  1.1299532006E+02  4.2189158356E+01  1.2992935373E+02  3.3000000000E-01 0. 9.
       2    1    8    0  103    0 -4.9019981475E+01  4.1918837592E+00  2.2168423710E+01  5.3963676516E+01  3.3000000000E-01 0. 9.
</event>
<event>
    12   230  1.000000E+00  5.841728E+02  7.928302E-03  9.873620E-02
      -1   -1    0    0    0  101  0.0000000000E+00  0.0000000000E+00  7.2116247523E+02  7.2116247523E+02  0.0000000000E+00 0. 9.
       2   -1    0    0  101    0  0.0000000000E+00  0.0000000000E+00 -5.7822888050E+02  5.7822888050E+02  0.0000000000E+00 0. 9.
 1000023    2    1    2    0    0 -4.3220246192E+02 -2.8656097129E+02 -2.0542422589E+02  6.1920803235E+02  2.6889276000E+02 0. 9.
 1000024    2    1    2    0    0  4.3220246192E+02  2.8656097129E+02  3.4835782062E+02  6.8018332338E+02  2.6903535800E+02 0. 9.
 1000022    1    3    0    0    0 -2.6499772696E+02 -1.5835761830E+02 -8.4476930470E+01  3.4506284773E+02  1.2896157000E+02 0. 9.
      25    2    3    0    0    0 -1.6720473496E+02 -1.2820335299E+02 -1.2094729542E+02  2.7414518461E+02  1.2701893900E+02 0. 9.
 1000022    1    4    0    0    0  3.2612975293E+02  1.2472594769E+02  2.5226825986E+02  4.4965268736E+02  1.2896157000E+02 0. 9.
      24    2    4    0    0    0  1.0607270899E+02  1.6183502359E+02  9.6089560761E+01  2.3053063602E+02  8.0431188000E+01 0. 9.
       5    1    6    0  102    0 -3.5099977402E+01 -9.0936923748E+01 -1.0996522209E+01  9.8211486167E+01  4.8000000000E+00 0. 9.
      -5    1    6    0    0  102 -1.3210475756E+02 -3.7266429239E+01 -1.0995077321E+02  1.7593369844E+02  4.8000000000E+00 0. 9.
     -13    1    8    0    0    0  6.6695619926E+01  3.2682204777E+01  2.8693616278E+01  7.9622653846E+01  1.0566000000E-01 0. 9.
      14    1    8    0    0    0  3.9377089065E+01  1.2915281882E+02  6.7395944483E+01  1.5090798217E+02  0.0000000000E+00 0. 9.
</event>
<event>
    12   230  1.000000E+00  3.167262E+02  7.873290E-03  1.065979E-01
       1   -1    0    0  101    0  0.0000000000E+00  0.0000000000E+00  1.6738201459E+02  1.6738201459E+02  0.0000000000E+00 0. 9.
      -2   -1    0    0    0  101  0.0000000000E+00  0.0000000000E+00 -6.0512859854E+02  6.0512859854E+02  0.0000000000E+00 0. 9.
 1000023    2    1    2    0    0 -1.6378638329E+02 -3.3879645386E+01 -2.5667321962E+02  4.0762515596E+02  2.6889276000E+02 0. 9.
-1000024    2    1    2    0    0  1.6378638329E+02  3.3879645386E+01 -1.8107336433E+02  3.6488545716E+02  2.6903535800E+02 0. 9.
 1000022    1    3    0    0    0 -1.7967127099E+02 -3.2684589949E+01 -1.7058054673E+02  2.8120963266E+02  1.2896157000E+02 0. 9.
      23    2    3    0    0    0  1.5884887693E+01 -1.1950554370E+00 -8.6092672881E+01  1.2641552330E+02  9.1187600000E+01 0. 9.
 1000022    1    4    0    0    0  1.5734640835E+02  3.6655163038E+01 -5.2860482718E+01  2.1337012530E+02  1.2896157000E+02 0. 9.
     -24    2    4    0    0    0  6.4399749408E+00 -2.7755176527E+00 -1.2821288161E+02  1.5151533187E+02  8.0431188000E+01 0. 9.
       4    1    6    0  102    0 -3.3374165657E+00  2.1435479843E+01  1.1356303344E+01  2.4532300566E+01  1.5000000000E+00 0. 9.
      -4    1    6    0    0  102  1.9222304259E+01 -2.2630535280E+01 -9.7448976225E+01  1.0188322274E+02  1.5000000000E+00 0. 9.
       1    1    8    0  103    0 -3.5210893845E+01 -1.2422443428E+01 -5.0326336867E+01  6.2665566530E+01  3.3000000000E-01 0. 9.
      -2    1    8    0    0  103  4.1650868786E+01  9.6469257755E+00 -7.7886544747E+01  8.8849765336E+01  3.3000000000E-01 0. 9.
</event>
<event>
    12   230  1.000000E+00  3.980590E+02  7.893740E-03  1.035203E-01
      -1   -1    0    0    0  101  0.0000000000E+00  0.0000000000E+00  1.6088439833E+02  1.6088439833E+02  0.0000000000E+00 0. 9.
       2   -1    0    0  101    0  0.0000000000E+00  0.0000000000E+00 -9.9232698504E+02  9.9232698504E+02  0.0000000000E+00 0. 9.
 1000023    2    1    2    0    0  6.0008890706E+01 -2.8724251003E+02 -3.6570329800E+02  5.4051044864E+02  2.6889276000E+02 0. 9.
 1000024    2    1    2    0    0 -6.0008890706E+01  2.8724251003E+02 -4.6573928870E+02  6.1270093474E+02  2.6903535800E+02 0. 9.
 1000022    1    3    0    0    0  1.3114889900E+01 -1.8391503744E+02 -1.7677507811E+02  2.8614202088E+02  1.2896157000E+02 0. 9.
      25    2    3    0    0    0  4.6894000807E+01 -1.0332747259E+02 -1.8892821989E+02  2.5436842776E+02  1.2701893900E+02 0. 9.
 1000022    1    4    0    0    0  4.7029603612E+01  1.1045258416E+02 -2.1456882958E+02  2.7763722036E+02  1.2896157000E+02 0. 9.
      24    2    4    0    0    0 -1.0703849432E+02  1.7678992587E+02 -2.5117045913E+02  3.3506371438E+02  8.0431188000E+01 0. 9.
       5    1    6    0  102    0  9.0440133048E+00  2.6780592537E+01 -1.1095523551E+01  3.0743209920E+01  4.8000000000E+00 0. 9.
      -5    1    6    0    0  102  3.7849987502E+01 -1.3010806513E+02 -1.7783269634E+02  2.2362521784E+02  4.8000000000E+00 0. 9.
      -1    1    8    0    0  103 -8.1265150898E+01  1.5620579202E+02 -1.5928398571E+02  2.3743582546E+02  3.3000000000E-01 0. 9.
       2    1    8    0  103    0 -2.5773343421E+01  2.0584133851E+01 -9.1886473419E+01  9.7627888919E+01  3.3000000000E-01 0. 9.
</event>
<event>
    26   271  1.000000E+00  1.010636E+03  7.978217E-03  9.261979E-02
       2   -1    0    0  101    0  0.0000000000E+00  0.0000000000E+00  5.8685547490E+02  5.8685547490E+02  0.0000000000E+00 0. 9.
       2   -1    0    0  102    0  0.0000000000E+00  0.0000000000E+00 -1.9423006033E+03  1.9423006033E+03  0.0000000000E+00 0. 9.
 1000002    2    1    2  101    0  1.8303557403E+02  6.9267335599E+01 -1.0854001298E+03  1.4830637921E+03  9.9150632100E+02 0. 9.
 1000002    2    1    2  102    0 -1.8303557403E+02 -6.9267335599E+01 -2.7004499861E+02  1.0460922861E+03  9.9150632100E+02 0. 9.
 1000021    2    3    0  101  103  1.1475391347E+02  1.8479845866E+01 -7.9552499696E+02  1.1809554410E+03  8.6503512500E+02 0. 9.
       2    1    3    0  103    0  6.8281660560E+01  5.0787489733E+01 -2.8987513279E+02  3.0210835108E+02  3.3000000000E-01 0. 9.
 1000021    2    4    0  102  104 -1.2538306858E+02  2.1445429942E+01 -3.1532509584E+02  9.2946032939E+02  8.6503512500E+02 0. 9.
       2    1    4    0  104    0 -5.7652505449E+01 -9.0712765541E+01  4.5280097235E+01  1.1663195669E+02  3.3000000000E-01 0. 9.
-1000024    2    5    0    0    0 -6.9321945713E+01  2.6623063575E+02 -1.1128689082E+02  4.0056095603E+02  2.6903535800E+02 0. 9.
       2    1    5    0  101    0  8.4941585624E+01 -3.1587775956E+01 -3.9833694646E+02  4.0851596343E+02  3.3000000000E-01 0. 9.
      -1    1    5    0    0  103  9.9134273556E+01 -2.1616301393E+02 -2.8590115968E+02  3.7187852155E+02  3.3000000000E-01 0. 9.
-1000024    2    7    0    0    0 -2.7989395837E+02  3.9819880394E+01 -3.7694952143E+02  5.4258383349E+02  2.6903535800E+02 0. 9.
       6    2    7    0  102    0  9.0200322027E+01 -1.0323381981E+02 -5.6272722413E+01  2.2794336782E+02  1.7320000000E+02 0. 9.
      -5    1    7    0    0  104  6.4310567763E+01  8.4859369354E+01  1.1789714800E+02  1.5893312807E+02  4.8000000000E+00 0. 9.
 1000022    1    9    0    0    0 -4.1743173290E+01  1.5581861520E+02 -1.5078600887E+02  2.5571359050E+02  1.2896157000E+02 0. 9.
     -24    2    9    0    0    0 -2.7578772423E+01  1.1041202055E+02  3.9499118046E+01  1.4484736553E+02  8.0431188000E+01 0. 9.
 1000022    1   12    0    0    0 -8.1069131493E+01  4.9844960873E+01 -8.8782432205E+01  1.8322153534E+02  1.2896157000E+02 0. 9.
     -24    2   12    0    0    0 -1.9882482687E+02 -1.0025080479E+01 -2.8816708923E+02  3.5936229816E+02  8.0431188000E+01 0. 9.
      24    2   13    0    0    0  2.7995629439E+01  1.0809838731E+01 -4.6376306092E+01  9.7573283489E+01  8.0431188000E+01 0. 9.
       5    1   13    0  102    0  6.2204692588E+01 -1.1404365854E+02 -9.8964163206E+00  1.3037008433E+02  4.8000000000E+00 0. 9.
       3    1   16    0  105    0 -2.5933484551E+01  2.8926506632E+01  4.9272047526E+01  6.2747693777E+01  5.0000000000E-01 0. 9.
      -4    1   16    0    0  105 -1.6452878721E+00  8.1485513918E+01 -9.7729294806E+00  8.2099671749E+01  1.5000000000E+00 0. 9.
       1    1   18    0  106    0 -1.5241993428E+02  2.0293798155E+01 -2.4434147689E+02  2.8869800976E+02  3.3000000000E-01 0. 9.
      -2    1   18    0    0  106 -4.6404892593E+01 -3.0318878634E+01 -4.3825612338E+01  7.0664288399E+01  3.3000000000E-01 0. 9.
      -1    1   19    0    0  107  1.5100948419E+01 -1.9321449431E+01  1.4459431941E+01  2.8470003922E+01  3.3000000000E-01 0. 9.
       2    1   19    0  107    0  1.2894681019E+01  3.0131288162E+01 -6.0835738033E+01  6.9103279567E+01  3.3000000000E-01 0. 9.
</event>
<event>
    12   230  1.000000E+00  2.840501E+02  7.863584E-03  1.081293E-01
      -2   -1    0    0    0  101  0.0000000000E+00  0.0000000000E+00  7.7855729891E+01  7.7855729891E+01  0.0000000000E+00 0. 9.
       1   -1    0    0  101    0  0.0000000000E+00  0.0000000000E+00 -1.1252066043E+03  1.1252066043E+03  0.0000000000E+00 0. 9.
-1000024    2    1    2    0    0 -7.5792835604E+01  5.0972762002E+01 -3.5473468427E+02  4.5448816979E+02  2.6903535800E+02 0. 9.
 1000023    2    1    2    0    0  7.5792835604E+01 -5.0972762002E+01 -6.9261619013E+02  7.4857416440E+02  2.6889276000E+02 0. 9.
 1000022    1    3    0    0    0 -6.7467521245E+01 -2.1978709191E+01 -1.0140926886E+02  1.7874522771E+02  1.2896157000E+02 0. 9.
     -24    2    3    0    0    0 -8.3253143590E+00  7.2951471193E+01 -2.5332541542E+02  2.7574294208E+02  8.0431188000E+01 0. 9.
 1000022    1    4    0    0    0  1.2443943210E+01  8.7675949304E+00 -3.0575820095E+02  3.3219103905E+02  1.2896157000E+02 0. 9.
      25    2    4    0    0    0  6.3348892394E+01 -5.9740356933E+01 -3.8685798919E+02  4.1638312535E+02  1.2701893900E+02 0. 9.
      13    1    6    0    0    0 -1.3107954970E+01  1.7511330910E+01 -6.6407033387E+00  2.2859905918E+01  1.0566000000E-01 0. 9.
     -14    1    6    0    0    0  4.7826406114E+00  5.5440140284E+01 -2.4668471208E+02  2.5288303616E+02  0.0000000000E+00 0. 9.
       5    1    8    0  102    0  7.6639305003E+01  2.7100967322E+00 -1.2430871127E+02  1.4613905499E+02  4.8000000000E+00 0. 9.
      -5    1    8    0    0  102 -1.3290412609E+01 -6.2450453665E+01 -2.6254927792E+02  2.7024407036E+02  4.8000000000E+00 0. 9.
</event>
<event>
    23   273  1.000000E+00  1.065544E+03  7.983068E-03  9.206930E-02
       1   -1    0    0  101    0  0.0000000000E+00  0.0000000000E+00  6.9928574916E+02  6.9928574916E+02  0.0000000000E+00 0. 9.
       2   -1    0    0  102    0  0.0000000000E+00  0.0000000000E+00 -2.2562147168E+03  2.2562147168E+03  0.0000000000E+00 0. 9.
 2000001    2    1    2  102    0  2.5294726037E+02 -2.9684848750E+02  3.9591595216E+00  1.0656438917E+03  9.9170554500E+02 0. 9.
 1000002    2    1    2  101    0 -2.5294726037E+02  2.9684848750E+02 -1.5608881271E+03  1.8898565742E+03  9.9150632100E+02 0. 9.
 1000022    1    3    0    0    0 -1.4035387795E+02  1.1071793626E+02  3.4138288708E+02  4.0636318066E+02  1.2896157000E+02 0. 9.
       1    1    3    0  102    0  3.9330113832E+02 -4.0756642375E+02 -3.3742372756E+02  6.5928071107E+02  3.3000000000E-01 0. 9.
 1000021    2    4    0  101  103 -1.2534382903E+02  1.8401796810E+02 -1.3503334283E+03  1.6190305195E+03  8.6503512500E+02 0. 9.
       2    1    4    0  103    0 -1.2760343134E+02  1.1283051939E+02 -2.1055469882E+02  2.7082605468E+02  3.3000000000E-01 0. 9.
 1000023    2    7    0    0    0 -4.5254400828E+01  7.0921861007E+01 -6.7112856618E+02  7.2787000205E+02  2.6889276000E+02 0. 9.
       6    2    7    0  101    0  1.4775257396E+02  7.2264317754E+01 -4.9151953585E+02  5.4648206636E+02  1.7320000000E+02 0. 9.
      -6    2    7    0    0  103 -2.2784200215E+02  4.0831789342E+01 -1.8768532630E+02  3.4467845113E+02  1.7320000000E+02 0. 9.
 1000022    1    9    0    0    0 -4.9689753890E+01  5.1054927752E+01 -2.8422620887E+02  3.2014262702E+02  1.2896157000E+02 0. 9.
      25    2    9    0    0    0  4.4353530615E+00  1.9866933255E+01 -3.8690235731E+02  4.0772737503E+02  1.2701893900E+02 0. 9.
      24    2   10    0    0    0  3.2965120908E+01  2.9189708748E+01 -3.3656408574E+02  3.4883133189E+02  8.0431188000E+01 0. 9.
       5    1   10    0  101    0  1.1478745305E+02  4.3074609006E+01 -1.5495545010E+02  1.9765073447E+02  4.8000000000E+00 0. 9.
     -24    2   11    0    0    0 -8.3834082408E+01 -3.3388603617E+01 -1.1571334068E+02  1.6733710120E+02  8.0431188000E+01 0. 9.
      -5    1   11    0    0  103 -1.4400791975E+02  7.4220392959E+01 -7.1971985622E+01  1.7734134993E+02  4.8000000000E+00 0. 9.
       5    1   13    0  104    0 -5.6114586732E+00 -5.3708246952E+01 -1.6018540140E+02  1.6911081302E+02  4.8000000000E+00 0. 9.
      -5    1   13    0    0  104  1.0046811735E+01  7.3575180207E+01 -2.2671695591E+02  2.3861656201E+02  4.8000000000E+00 0. 9.
      -1    1   14    0    0  105 -4.3010308197E+00  7.9436781599E-01 -2.5292763383E+02  2.5296566317E+02  3.3000000000E-01 0. 9.
       2    1   14    0  105    0  3.7266151728E+01  2.8395340932E+01 -8.3636451911E+01  9.5865668722E+01  3.3000000000E-01 0. 9.
       1    1   16    0  106    0 -5.4917081145E+01  9.2829653343E+00 -2.1037331558E+01  5.9537697856E+01  3.3000000000E-01 0. 9.
      -2    1   16    0    0  106 -2.8917001263E+01 -4.2671568952E+01 -9.4676009122E+01  1.0779940335E+02  3.3000000000E-01 0. 9.
</event>
<event>
    12   230  1.000000E+00  4.536862E+02  7.905491E-03  1.018377E-01
       2   -1    0    0  101    0  0.0000000000E+00  0.0000000000E+00  6.2202513421E+02  6.2202513421E+02  0.0000000000E+00 0. 9.
      -1   -1    0    0    0  101  0.0000000000E+00  0.0000000000E+00 -4.4808234826E+02  4.4808234826E+02  0.0000000000E+00 0. 9.
 1000024    2    1    2    0    0 -1.0078794876E+02  3.5118558455E+02 -1.8663794784E+02  4.9061519834E+02  2.6903535800E+02 0. 9.
 1000023    2    1    2    0    0  1.0078794876E+02 -3.5118558455E+02  3.6058073379E+02  5.7949228413E+02  2.6889276000E+02 0. 9.
 1000022    1    3    0    0    0 -8.7267273315E+01  1.9850300808E+02 -1.9261285098E+02  3.1741111844E+02  1.2896157000E+02 0. 9.
      24    2    3    0    0    0 -1.3520675450E+01  1.5268257647E+02  5.9749031468E+00  1.7320407990E+02  8.0431188000E+01 0. 9.
 1000022    1    4    0    0    0  4.6950791649E+01 -8.5105906935E+01  8.6971265377E+01  1.8341886427E+02  1.2896157000E+02 0. 9.
      23    2    4    0    0    0  5.3837157115E+01 -2.6607967762E+02  2.7360946841E+02  3.9607341986E+02  9.1187600000E+01 0. 9.
      -3    1    6    0    0  102 -1.7321258267E+01  1.8500769108E+00 -1.2131511973E+01  2.1233755091E+01  5.0000000000E-01 0. 9.
       4    1    6    0  102    0  3.8005828173E+00  1.5083249956E+02  1.8106415120E+01  1.5197032480E+02  1.5000000000E+00 0. 9.
      15    1    8    0    0    0 -2.3268551288E+01 -3.7833496277E+01  5.5311198824E+01  7.0959744672E+01  1.7770000000E+00 0. 9.
     -15    1    8    0    0    0  7.7105708404E+01 -2.2824618134E+02  2.1829826958E+02  3.2511367519E+02  1.7770000000E+00 0. 9.
</event>
<event>
    12   230  1.000000E+00  3.264785E+02  7.875997E-03  1.061791E-01
      -1   -1    0    0    0  101  0.0000000000E+00  0.0000000000E+00  1.9536055452E+02  1.9536055452E+02  0.0000000000E+00 0. 9.
       2   -1    0    0  101    0  0.0000000000E+00  0.0000000000E+00 -6.3172064110E+02  6.3172064110E+02  0.0000000000E+00 0. 9.
 1000023    2    1    2    0    0  1.8429449810E+02 -1.6795572035E+01 -3.7083792642E+02  4.9403505677E+02  2.6889276000E+02 0. 9.
 1000024    2    1    2    0    0 -1.8429449810E+02  1.6795572035E+01 -6.5522160161E+01  3.3304613884E+02  2.6903535800E+02 0. 9.
 1000022    1    3    0    0    0  7.9954447703E+01  2.8359607205E+01 -2.0061714102E+02  2.5313100331E+02  1.2896157000E+02 0. 9.
      25    2    3    0    0    0  1.0434005040E+02 -4.5155179240E+01 -1.7022078540E+02  2.4090405346E+02  1.2701893900E+02 0. 9.
 1000022    1    4    0    0    0 -9.0056417158E+00  3.1081296736E+01 -3.2259578610E+01  1.3681708789E+02  1.2896157000E+02 0. 9.
      24    2    4    0    0    0 -1.7528885638E+02 -1.4285724701E+01 -3.3262581551E+01  1.9622905095E+02  8.0431188000E+01 0. 9.
      21    1    6    0  102  103  4.8227969964E+01  1.6592089708E+01 -1.4505018088E+02  1.5375561616E+02  0.0000000000E+00 0. 9.
      21    1    6    0  103  102  5.6112080433E+01 -6.1747268948E+01 -2.5170604523E+01  8.7148437307E+01  0.0000000000E+00 0. 9.
      -1    1    8    0    0  104 -8.9296631034E+01  3.2607470397E+01 -2.2508722962E+01  9.7692819333E+01  3.3000000000E-01 0. 9.
       2    1    8    0  104    0 -8.5992225349E+01 -4.6893195097E+01 -1.0753858589E+01  9.8536231618E+01  3.3000000000E-01 0. 9.
</event>
<event>
    18   244  1.000000E+00  9.414456E+02  7.971723E-03  9.336811E-02
      21   -1    0    0  101  102  0.0000000000E+00  0.0000000000E+00  1.0785256182E+03  1.0785256182E+03  0.0000000000E+00 0. 9.
      21   -1    0    0  103  101  0.0000000000E+00  0.0000000000E+00 -9.5899716042E+02  9.5899716042E+02  0.0000000000E+00 0. 9.
 1000021    2    1    2  103  104  3.0356040918E+02  2.1420805517E+02 -3.2558529561E+02  9.9615539206E+02  8.6503512500E+02 0. 9.
 1000021    2    1    2  104  102 -3.0356040918E+02 -2.1420805517E+02  4.4511375343E+02  1.0413673866E+03  8.6503512500E+02 0. 9.
 1000024    2    3    0    0    0  1.2142201418E+02  3.0349977781E+02 -4.7016428706E+02  6.3268467766E+02  2.6903535800E+02 0. 9.
      -2    1    3    0    0  104  5.4994865656E+01 -1.4721455870E+02  1.5832817825E+02  2.2307954292E+02  3.3000000000E-01 0. 9.
       1    1    3    0  103    0  1.2714352935E+02  5.7922836051E+01 -1.3749186798E+01  1.4039117148E+02  3.3000000000E-01 0. 9.
 1000024    2    4    0    0    0 -3.1381970834E+01  1.2963022634E+02  1.4034824411E+02  3.3146112465E+02  2.6903535800E+02 0. 9.
      -4    1    4    0    0  102 -2.3786077520E+02 -2.4004646278E+02  4.2789591217E+02  5.4524968072E+02  1.5000000000E+00 0. 9.
       3    1    4    0  104    0 -3.4317663149E+01 -1.0379181873E+02 -1.2313040285E+02  1.6465658124E+02  5.0000000000E-01 0. 9.
 1000022    1    5    0    0    0  1.5666571416E+00  6.4711966054E+01 -1.6455962249E+02  2.1886308244E+02  1.2896157000E+02 0. 9.
      24    2    5    0    0    0  1.1985535704E+02  2.3878781176E+02 -3.0560466457E+02  4.1382159521E+02  8.0431188000E+01 0. 9.
 1000022    1    8    0    0    0 -5.8569446093E+01  1.4172964477E+01  1.8872830743E+01  1.4359151512E+02  1.2896157000E+02 0. 9.
      24    2    8    0    0    0  2.7187475259E+01  1.1545726187E+02  1.2147541337E+02  1.8786960953E+02  8.0431188000E+01 0. 9.
     -13    1   12    0    0    0  7.1651431559E+01  1.5778125340E+02 -1.3798559341E+02  2.2151498081E+02  1.0566000000E-01 0. 9.
      14    1   12    0    0    0  4.8203925477E+01  8.1006558360E+01 -1.6761907116E+02  1.9230661440E+02  0.0000000000E+00 0. 9.
     -13    1   14    0    0    0  8.7782723497E+00 -9.9766652750E+00  2.5870110095E+01  2.9083769972E+01  1.0566000000E-01 0. 9.
      14    1   14    0    0    0  1.8409202910E+01  1.2543392714E+02  9.5605303274E+01  1.5878583956E+02  0.0000000000E+00 0. 9.
</event>
<event>
    12   226  1.000000E+00  2.861829E+02  7.864250E-03  1.080227E-01
       2   -1    0    0  101    0  0.0000000000E+00  0.0000000000E+00  2.3364230472E+02  2.3364230472E+02  0.0000000000E+00 0. 9.
      -2   -1    0    0    0  101  0.0000000000E+00  0.0000000000E+00 -3.5087993809E+02  3.5087993809E+02  0.0000000000E+00 0. 9.
 1000024    2    1    2    0    0 -6.6462591693E+01  7.1437749660E+01 -6.7734071789E+01  2.9408936823E+02  2.6903535800E+02 0. 9.
-1000024    2    1    2    0    0  6.6462591693E+01 -7.1437749660E+01 -4.9503561581E+01  2.9043287458E+02  2.6903535800E+02 0. 9.
 1000022    1    3    0    0    0 -6.9751070958E+01 -1.8968415839E+01  1.3275388626E+01  1.4843293159E+02  1.2896157000E+02 0. 9.
      24    2    3    0    0    0  3.2884792647E+00  9.0406165499E+01 -8.1009460415E+01  1.4565643664E+02  8.0431188000E+01 0. 9.
 1000022    1    4    0    0    0  6.2036067405E+01 -1.1466484516E+02  6.0143327632E+00  1.8347686260E+02  1.2896157000E+02 0. 9.
     -24    2    4    0    0    0  4.4265242885E+00  4.3227095497E+01 -5.5517894344E+01  1.0695601198E+02  8.0431188000E+01 0. 9.
      -3    1    6    0    0  102  8.4745635177E+00  6.1952612214E+01 -9.4837065411E+01  1.1359693377E+02  5.0000000000E-01 0. 9.
       2    1    6    0  102    0 -5.1860842530E+00  2.8453553285E+01  1.3827604996E+01  3.2059502871E+01  3.3000000000E-01 0. 9.
       3    1    8    0  103    0  2.2988505907E+01  4.9785904447E+01 -7.8977910137E+00  5.5405169329E+01  5.0000000000E-01 0. 9.
      -4    1    8    0    0  103 -1.8561981618E+01 -6.5588089503E+00 -4.7620103331E+01  5.1550842647E+01  1.5000000000E+00 0. 9.
</event>
<event>
    12   230  1.000000E+00  5.180920E+02  7.917453E-03  1.001851E-01
      -1   -1    0    0    0  101  0.0000000000E+00  0.0000000000E+00  1.5622230470E+02  1.5622230470E+02  0.0000000000E+00 0. 9.
       2   -1    0    0  101    0  0.0000000000E+00  0.0000000000E+00 -1.9044722061E+03  1.9044722061E+03  0.0000000000E+00 0. 9.
 1000023    2    1    2    0    0  2.5999574320E+02  3.5844094420E+02 -5.5182542057E+02  7.5689649763E+02  2.6889276000E+02 0. 9.
 1000024    2    1    2    0    0 -2.5999574320E+02 -3.5844094420E+02 -1.1964244809E+03  1.3037980132E+03  2.6903535800E+02 0. 9.
 1000022    1    3    0    0    0  1.5413366152E+02  1.5806312354E+02 -3.1147797038E+02  4.0297735570E+02  1.2896157000E+02 0. 9.
      25    2    3    0    0    0  1.0586208168E+02  2.0037782066E+02 -2.4034745019E+02  3.5391914194E+02  1.2701893900E+02 0. 9.
 1000022    1    4    0    0    0 -1.3904810023E+02 -2.4676613503E+02 -5.5041966641E+02  6.3231384239E+02  1.2896157000E+02 0. 9.
      24    2    4    0    0    0 -1.2094764296E+02 -1.1167480917E+02 -6.4600481444E+02  6.7148417080E+02  8.0431188000E+01 0. 9.
       5    1    6    0  102    0  8.3461115421E+01  1.0634991851E+02 -5.7395173758E+01  1.4694661930E+02  4.8000000000E+00 0. 9.
      -5    1    6    0    0  102  2.2400966257E+01  9.4027902157E+01 -1.8295227644E+02  2.0697252264E+02  4.8000000000E+00 0. 9.
      -1    1    8    0    0  103 -6.1620013069E+01 -2.2768994123E+01 -3.6447095117E+02  3.7034394318E+02  3.3000000000E-01 0. 9.
       2    1    8    0  103    0 -5.9327629893E+01 -8.8905815048E+01 -2.8153386328E+02  3.0114022762E+02  3.3000000000E-01 0. 9.
</event>
<event>
    24   259  1.000000E+00  1.016248E+03  7.978724E-03  9.256186E-02
      21   -1    0    0  101  102  0.0000000000E+00  0.0000000000E+00  8.2230144308E+02  8.2230144308E+02  0.0000000000E+00 0. 9.
       1   -1    0    0  102    0  0.0000000000E+00  0.0000000000E+00 -1.8794687817E+03  1.8794687817E+03  0.0000000000E+00 0. 9.
 1000021    2    1    2  101  103 -3.6142703883E+02  1.9038907207E+02  2.7131136895E+02  9.9437072039E+02  8.6503512500E+02 0. 9.
 2000001    2    1    2  103    0  3.6142703883E+02 -1.9038907207E+02 -1.3284787076E+03  1.7073995044E+03  9.9170554500E+02 0. 9.
-1000024    2    3    0    0    0 -2.5304937518E+02  4.4664186096E+02  1.3563410390E+02  5.9523068825E+02  2.6903535800E+02 0. 9.
       6    2    3    0  101    0 -8.6972259091E+01 -1.0411410127E+02  6.1338824883E+01  2.2839573414E+02  1.7320000000E+02 0. 9.
      -5    1    3    0    0  103 -2.1405404566E+01 -1.5213868762E+02  7.4338440169E+01  1.7074429801E+02  4.8000000000E+00 0. 9.
 1000021    2    4    0  103  104  3.0824192163E+02 -5.0342210095E+01 -1.1844682846E+03  1.4995993815E+03  8.6503512500E+02 0. 9.
       1    1    4    0  104    0  5.3185117206E+01 -1.4004686198E+02 -1.4401042298E+02  2.0780012288E+02  3.3000000000E-01 0. 9.
 1000022    1    5    0    0    0 -3.2307150920E+01  1.6097887191E+02  3.2834139212E+01  2.1134596385E+02  1.2896157000E+02 0. 9.
     -24    2    5    0    0    0 -2.2074222426E+02  2.8566298905E+02  1.0279996469E+02  3.8388472440E+02  8.0431188000E+01 0. 9.
      24    2    6    0    0    0  6.5537604019E+00 -3.7484595689E+01 -1.5257610970E+01  9.0277446713E+01  8.0431188000E+01 0. 9.
       5    1    6    0  101    0 -9.3526019492E+01 -6.6629505581E+01  7.6596435853E+01  1.3811828743E+02  4.8000000000E+00 0. 9.
 1000024    2    8    0    0    0 -9.3431772298E+01  1.9685531320E+00 -6.5414055998E+02  7.1345165732E+02  2.6903535800E+02 0. 9.
      -4    1    8    0    0  104  1.9902633518E+02 -2.1576843177E+01  1.7764369857E+01  2.0098473846E+02  1.5000000000E+00 0. 9.
       3    1    8    0  103    0  2.0264735874E+02 -3.0733920050E+01 -5.4809209451E+02  5.8516298577E+02  5.0000000000E-01 0. 9.
       3    1   11    0  105    0 -2.2471991111E+02  2.6453183970E+02  1.0386417318E+02  3.6230394579E+02  5.0000000000E-01 0. 9.
      -4    1   11    0    0  105  3.9776868573E+00  2.1131149349E+01 -1.0642084869E+00  2.1580778606E+01  1.5000000000E+00 0. 9.
      -3    1   12    0    0  106  1.6205431631E+01 -4.9699577443E+01  1.6548489765E+01  5.4833990607E+01  5.0000000000E-01 0. 9.
       4    1   12    0  106    0 -9.6516712290E+00  1.2214981754E+01 -3.1806100735E+01  3.5443456106E+01  1.5000000000E+00 0. 9.
 1000022    1   14    0    0    0 -3.6148139547E+01 -4.6789513988E+01 -5.2450819498E+02  5.4335612609E+02  1.2896157000E+02 0. 9.
      24    2   14    0    0    0 -5.7283632752E+01  4.8758067120E+01 -1.2963236499E+02  1.7009553124E+02  8.0431188000E+01 0. 9.
      -3    1   22    0    0  107 -7.6502349737E+01  4.4734630946E+01 -1.1669881914E+02  1.4653552849E+02  5.0000000000E-01 0. 9.
       4    1   22    0  107    0  1.9218716986E+01  4.0234361740E+00 -1.2933545858E+01  2.3560002752E+01  1.5000000000E+00 0. 9.
</event>
<event>
    12   226  1.000000E+00  2.731233E+02  7.860094E-03  1.086919E-01
       2   -1    0    0  101    0  0.0000000000E+00  0.0000000000E+00  9.1203762742E+02  9.1203762742E+02  0.0000000000E+00 0. 9.
      -2   -1    0    0    0  101  0.0000000000E+00  0.0000000000E+00 -9.3275296916E+01  9.3275296916E+01  0.0000000000E+00 0. 9.
 1000024    2    1    2    0    0  1.8872526562E+01  4.3129414397E+01  5.8575850622E+02  6.4630439431E+02  2.6903535800E+02 0. 9.
-1000024    2    1    2    0    0 -1.8872526562E+01 -4.3129414397E+01  2.3300382429E+02  3.5900853003E+02  2.6903535800E+02 0. 9.
 1000022    1    3    0    0    0  7.8138912790E+01 -1.6274729110E+01  3.9252198206E+02  4.2080298173E+02  1.2896157000E+02 0. 9.
      24    2    3    0    0    0 -5.9266386228E+01  5.9404143507E+01  1.9323652416E+02  2.2550141258E+02  8.0431188000E+01 0. 9.
 1000022    1    4    0    0    0 -4.8499463968E+01  4.3612505861E+01  1.6515485160E+02  2.1945719450E+02  1.2896157000E+02 0. 9.
     -24    2    4    0    0    0  2.9626937406E+01 -8.6741920258E+01  6.7848972687E+01  1.3955133553E+02  8.0431188000E+01 0. 9.
     -15    1    6    0    0    0  4.3209088655E+00  2.9483980039E+00  9.6689231166E+01  9.6846933130E+01  1.7770000000E+00 0. 9.
      16    1    6    0    0    0 -6.3587295093E+01  5.6455745503E+01  9.6547292991E+01  1.2865447945E+02  0.0000000000E+00 0. 9.
      13    1    8    0    0    0  3.4041311722E+01 -2.2303791859E+01 -6.3373256480E+00  4.1187897439E+01  1.0566000000E-01 0. 9.
     -14    1    8    0    0    0 -4.4143743159E+00 -6.4438128400E+01  7.4186298335E+01  9.8363438090E+01  0.0000000000E+00 0. 9.
</event>
<event>
    14   244  1.000000E+00  9.349254E+02  7.971088E-03  9.344209E-02
      21   -1    0    0  101  102  0.0000000000E+00  0.0000000000E+00  1.0715951359E+03  1.0715951359E+03  0.0000000000E+00 0. 9.
      21   -1    0    0  103  104  0.0000000000E+00  0.0000000000E+00 -8.1743749384E+02  8.1743749384E+02  0.0000000000E+00 0. 9.
 1000021    2    1    2  101  104  4.5045757634E+01  3.5181040284E+02  1.7079599718E+02  9.5039819022E+02  8.6503512500E+02 0. 9.
 1000021    2    1    2  103  102 -4.5045757634E+01 -3.5181040284E+02  8.3361644928E+01  9.3863443958E+02  8.6503512500E+02 0. 9.
 1000022    1    3    0    0    0  2.2757460960E+02  4.0588731067E+02  2.6021218323E+02  5.4852181245E+02  1.2896157000E+02 0. 9.
       4    1    3    0  101    0 -1.2985202728E+02  1.2562660015E+02 -1.1302834824E+02  2.1312261532E+02  1.5000000000E+00 0. 9.
      -4    1    3    0    0  104 -5.2676824679E+01 -1.7970350797E+02  2.3612162194E+01  1.8875376245E+02  1.5000000000E+00 0. 9.
-1000024    2    4    0    0    0  1.7540151375E+01 -3.6783774715E+02 -3.0550357338E+01  4.5708381433E+02  2.6903535800E+02 0. 9.
       4    1    4    0  103    0 -1.2954079936E+02  9.0582211138E+01  2.6006794408E+02  3.0434115925E+02  1.5000000000E+00 0. 9.
      -3    1    4    0    0  102  6.6954890352E+01 -7.4554866833E+01 -1.4615594181E+02  1.7720946600E+02  5.0000000000E-01 0. 9.
 1000022    1    8    0    0    0  8.7296051755E+01 -1.6565739539E+02 -2.1989198420E+01  2.2842413332E+02  1.2896157000E+02 0. 9.
     -24    2    8    0    0    0 -6.9755900380E+01 -2.0218035176E+02 -8.5611589177E+00  2.2865968102E+02  8.0431188000E+01 0. 9.
       1    1   12    0  105    0  6.0220296597E+00 -8.0219312483E+01 -2.4742960618E+01  8.4164873532E+01  3.3000000000E-01 0. 9.
      -2    1   12    0    0  105 -7.5777930040E+01 -1.2196103928E+02  1.6181801700E+01  1.4449480748E+02  3.3000000000E-01 0. 9.
</event>
<event>
    12   226  1.000000E+00  3.200435E+02  7.874220E-03  1.064536E-01
       2   -1    0    0  101    0  0.0000000000E+00  0.0000000000E+00  6.2870127557E+02  6.2870127557E+02  0.0000000000E+00 0. 9.
      -2   -1    0    0    0  101  0.0000000000E+00  0.0000000000E+00 -2.0778647272E+02  2.0778647272E+02  0.0000000000E+00 0. 9.
 1000024    2    1    2    0    0 -1.6126083840E+02 -6.3582850765E+01  4.0480674587E+02  5.1603910925E+02  2.6903535800E+02 0. 9.
-1000024    2    1    2    0    0  1.6126083840E+02  6.3582850765E+01  1.6108056974E+01  3.2044863905E+02  2.6903535800E+02 0. 9.
 1000022    1    3    0    0    0 -3.6028193297E+01 -8.4817275318E+01  1.3975251858E+02  2.1131458514E+02  1.2896157000E+02 0. 9.
      24    2    3    0    0    0 -1.2523264511E+02  2.1234424552E+01  2.6505422729E+02  3.0472452411E+02  8.0431188000E+01 0. 9.
 1000022    1    4    0    0    0  1.2979732172E+02  5.7113252534E+01 -6.4393769708E+01  2.0220512470E+02  1.2896157000E+02 0. 9.
     -24    2    4    0    0    0  3.1463516685E+01  6.4695982308E+00  8.0501826682E+01  1.1824351435E+02  8.0431188000E+01 0. 9.
     -11    1    6    0    0    0 -8.6207451812E+01  2.7279196796E+01  2.4347459500E+02  2.5972246290E+02  5.1000000000E-04 0. 9.
      12    1    6    0    0    0 -3.9025193296E+01 -6.0447722431E+00  2.1579632293E+01  4.5002061211E+01  0.0000000000E+00 0. 9.
      13    1    8    0    0    0 -1.5328091921E+01 -3.7872414848E+00 -7.9315337891E+00  1.7669578158E+01  1.0566000000E-01 0. 9.
     -14    1    8    0    0    0  4.6791608606E+01  1.0256839716E+01  8.8433360471E+01  1.0057393619E+02  0.0000000000E+00 0. 9.
</event>
<event>
    20   258  1.000000E+00  1.019538E+03  7.979021E-03  9.252808E-02
       1   -1    0    0  101    0  0.0000000000E+00  0.0000000000E+00  2.5793232213E+03  2.5793232213E+03  0.0000000000E+00 0. 9.
      21   -1    0    0  102  101  0.0000000000E+00  0.0000000000E+00 -6.5267076477E+02  6.5267076477E+02  0.0000000000E+00 0. 9.
 1000001    2    1    2  103    0 -3.7707740637E+02  1.6968523209E+02  1.9988728062E+03  2.2704941188E+03  9.9431916400E+02 0. 9.
 1000021    2    1    2  102  103  3.7707740637E+02 -1.6968523209E+02 -7.2220349641E+01  9.6149986727E+02  8.6503512500E+02 0. 9.
 1000021    2    3    0  103  104 -3.5387234641E+02  2.5791470635E+02  1.6893087084E+03  1.9477667502E+03  8.6503512500E+02 0. 9.
       1    1    3    0  104    0 -2.3205059955E+01 -8.8229474266E+01  3.0956409779E+02  3.2272736865E+02  3.3000000000E-01 0. 9.
-1000024    2    4    0    0    0  3.5271316247E+01  1.7837195336E+01 -1.7041220569E+02  3.2090898241E+02  2.6903535800E+02 0. 9.
       2    1    4    0  102    0  1.0634130182E+02  1.5462299450E+02 -5.8666804961E+01  1.9661802004E+02  3.3000000000E-01 0. 9.
      -1    1    4    0    0  103  2.3546478829E+02 -3.4214542192E+02  1.5685866101E+02  4.4397286482E+02  3.3000000000E-01 0. 9.
 1000024    2    5    0    0    0 -1.5964823064E+02  2.7673069236E+02  1.6827402992E+03  1.7337999804E+03  2.6903535800E+02 0. 9.
      -4    1    5    0    0  104 -1.9472622029E+01 -1.9023989181E+01 -2.4284934843E+01  3.6511686257E+01  1.5000000000E+00 0. 9.
       3    1    5    0  103    0 -1.7475149374E+02  2.0800317679E-01  3.0853344060E+01  1.7745508353E+02  5.0000000000E-01 0. 9.
 1000022    1    7    0    0    0 -5.7968001554E+01  3.6652111270E+01 -1.0748911744E+02  1.8135231835E+02  1.2896157000E+02 0. 9.
     -24    2    7    0    0    0  9.3239317801E+01 -1.8814915934E+01 -6.2923088246E+01  1.3955666406E+02  8.0431188000E+01 0. 9.
 1000022    1   10    0    0    0 -1.0490459767E+02  1.4019799233E+02  6.0077248215E+02  6.3892027164E+02  1.2896157000E+02 0. 9.
      24    2   10    0    0    0 -5.4743632970E+01  1.3653270002E+02  1.0819678170E+03  1.0948797088E+03  8.0431188000E+01 0. 9.
      15    1   14    0    0    0  5.3939666988E+01  1.1600905497E+01  4.9639396994E+00  5.5424427011E+01  1.7770000000E+00 0. 9.
     -16    1   14    0    0    0  3.9299650813E+01 -3.0415821432E+01 -6.7887027946E+01  8.4132237048E+01  0.0000000000E+00 0. 9.
      -3    1   16    0    0  105 -9.0179336080E+00  1.1778796401E+02  7.4741432150E+02  7.5669263613E+02  5.0000000000E-01 0. 9.
       4    1   16    0  105    0 -4.5725699362E+01  1.8744736010E+01  3.3455349554E+02  3.3818707262E+02  1.5000000000E+00 0. 9.
</event>
<event>
    12   230  1.000000E+00  3.232039E+02  7.875097E-03  1.063179E-01
      -2   -1    0    0    0  101  0.0000000000E+00  0.0000000000E+00  7.9801907598E+01  7.9801907598E+01  0.0000000000E+00 0. 9.
       1   -1    0    0  101    0  0.0000000000E+00  0.0000000000E+00 -1.5427736210E+03  1.5427736210E+03  0.0000000000E+00 0. 9.
-1000024    2    1    2    0    0  4.9367274857E+01  1.7228449392E+02 -4.1579330165E+02  5.2667178415E+02  2.6903535800E+02 0. 9.
 1000023    2    1    2    0    0 -4.9367274857E+01 -1.7228449392E+02 -1.0471784118E+03  1.0959037444E+03  2.6889276000E+02 0. 9.
 1000022    1    3    0    0    0  3.0503617360E+01  3.6686156885E+01 -3.0043898733E+02  3.3041037578E+02  1.2896157000E+02 0. 9.
     -24    2    3    0    0    0  1.8863657497E+01  1.3559833703E+02 -1.1535431431E+02  1.9626140836E+02  8.0431188000E+01 0. 9.
 1000022    1    4    0    0    0 -3.8653928293E+01 -4.2445469815E+01 -4.6484547393E+02  4.8580669535E+02  1.2896157000E+02 0. 9.
      25    2    4    0    0    0 -1.0713346564E+01 -1.2983902410E+02 -5.8233293783E+02  6.1009704910E+02  1.2701893900E+02 0. 9.
       1    1    6    0  102    0  7.0435037514E+00  1.3767462868E+02 -8.1047887574E+01  1.5991492522E+02  3.3000000000E-01 0. 9.
      -2    1    6    0    0  102  1.1820153746E+01 -2.0762916489E+00 -3.4306426739E+01  3.6346483147E+01  3.3000000000E-01 0. 9.
       5    1    8    0  103    0 -4.8645723477E+01 -1.1459787371E+02 -5.2461477152E+02  5.3920569133E+02  4.8000000000E+00 0. 9.
      -5    1    8    0    0  103  3.7932376913E+01 -1.5241150388E+01 -5.7718166308E+01  7.0891357762E+01  4.8000000000E+00 0. 9.
</event>
<event>
    12   226  1.000000E+00  3.505299E+02  7.882350E-03  1.052102E-01
      -2   -1    0    0    0  101  0.0000000000E+00  0.0000000000E+00  2.0405037598E+02  2.0405037598E+02  0.0000000000E+00 0. 9.
       2   -1    0    0  101    0  0.0000000000E+00  0.0000000000E+00 -6.0243957248E+02  6.0243957248E+02  0.0000000000E+00 0. 9.
-1000024    2    1    2    0    0  1.8379606745E+02 -1.2926797566E+02 -1.9052712038E+02  3.9896342113E+02  2.6903535800E+02 0. 9.
 1000024    2    1    2    0    0 -1.8379606745E+02  1.2926797566E+02 -2.0786207612E+02  4.0752652734E+02  2.6903535800E+02 0. 9.
 1000022    1    3    0    0    0  8.8904445398E+00 -4.6378258209E+01 -1.0371019538E+02  1.7209553743E+02  1.2896157000E+02 0. 9.
     -24    2    3    0    0    0  1.7490562291E+02 -8.2889717450E+01 -8.6816924995E+01  2.2686788370E+02  8.0431188000E+01 0. 9.
 1000022    1    4    0    0    0 -5.8675547543E+01 -1.2580110729E+01 -1.1038308412E+02  1.8004607983E+02  1.2896157000E+02 0. 9.
      24    2    4    0    0    0 -1.2512051991E+02  1.4184808639E+02 -9.7478991998E+01  2.2748044751E+02  8.0431188000E+01 0. 9.
      13    1    6    0    0    0 -2.4800292592E+00 -1.5621652504E+01 -2.0512416357E+01  2.5902836928E+01  1.0566000000E-01 0. 9.
     -14    1    6    0    0    0  1.7738565217E+02 -6.7268064946E+01 -6.6304508639E+01  2.0096504677E+02  0.0000000000E+00 0. 9.
      -3    1    8    0    0  102 -8.7868178100E+01  1.4344170324E+02 -7.9239322296E+01  1.8594477446E+02  5.0000000000E-01 0. 9.
       4    1    8    0  102    0 -3.7252341810E+01 -1.5936168481E+00 -1.8239669703E+01  4.1535673052E+01  1.5000000000E+00 0. 9.
</event>
<event>
    12   230  1.000000E+00  3.360463E+02  7.878577E-03  1.057832E-01
       1   -1    0    0  101    0  0.0000000000E+00  0.0000000000E+00  5.6474093035E+02  5.6474093035E+02  0.0000000000E+00 0. 9.
      -2   -1    0    0    0  101  0.0000000000E+00  0.0000000000E+00 -2.0655256711E+02  2.0655256711E+02  0.0000000000E+00 0. 9.
 1000023    2    1    2    0    0  1.9074117453E+02 -6.4832429646E+01  2.4794797788E+02  4.1757269512E+02  2.6889276000E+02 0. 9.
-1000024    2    1    2    0    0 -1.9074117453E+02  6.4832429646E+01  1.1024038536E+02  3.5372080235E+02  2.6903535800E+02 0. 9.
 1000022    1    3    0    0    0  8.4528474622E+01 -1.0730431616E+02  1.6090416677E+02  2.4734695614E+02  1.2896157000E+02 0. 9.
      23    2    3    0    0    0  1.0621269991E+02  4.2471886517E+01  8.7043811104E+01  1.7022573898E+02  9.1187600000E+01 0. 9.
 1000022    1    4    0    0    0 -1.3063217450E+02 -2.5332425811E+01  1.1605019241E+02  2.1864407265E+02  1.2896157000E+02 0. 9.
     -24    2    4    0    0    0 -6.0109000033E+01  9.0164855457E+01 -5.8098070433E+00  1.3507672970E+02  8.0431188000E+01 0. 9.
      16    1    6    0    0    0  1.0738387781E+02  6.0765322228E+01  8.8492706977E+01  1.5183767908E+02  0.0000000000E+00 0. 9.
     -16    1    6    0    0    0 -1.1711779025E+00 -1.8293435711E+01 -1.4488958730E+00  1.8388059904E+01  0.0000000000E+00 0. 9.
      15    1    8    0    0    0 -2.7949646509E+01  2.9536560241E+01  3.6316556902E+01  5.4549437807E+01  1.7770000000E+00 0. 9.
     -16    1    8    0    0    0 -3.2159353524E+01  6.0628295216E+01 -4.2126363945E+01  8.0527291890E+01  0.0000000000E+00 0. 9.
</event>
<event>
    20   259  1.000000E+00  1.003280E+03  7.977547E-03  9.269632E-02
       2   -1    0    0  101    0  0.0000000000E+00  0.0000000000E+00  1.3571271419E+03  1.3571271419E+03  0.0000000000E+00 0. 9.
      21   -1    0    0  102  101  0.0000000000E+00  0.0000000000E+00 -7.5850009653E+02  7.5850009653E+02  0.0000000000E+00 0. 9.
 2000002    2    1    2  103    0  3.6250492203E+02  9.8390590707E+01  4.8493958700E+02  1.1657319113E+03  9.9129912700E+02 0. 9.
 1000021    2    1    2  102  103 -3.6250492203E+02 -9.8390590707E+01  1.1368745840E+02  9.4989532714E+02  8.6503512500E+02 0. 9.
 1000021    2    3    0  103  104  3.5899867972E+02  8.0268746858E+01  5.5612460959E+02  1.0921920493E+03  8.6503512500E+02 0. 9.
       2    1    3    0  104    0  3.5062423106E+00  1.8121843850E+01 -7.1185022586E+01  7.3539861982E+01  3.3000000000E-01 0. 9.
-1000024    2    4    0    0    0 -4.3301180228E+02 -1.0371966307E+02 -1.8296924599E+02  5.5146600825E+02  2.6903535800E+02 0. 9.
       2    1    4    0  102    0 -6.1523239148E+01  1.4661477043E+01  2.5033002598E+02  2.5819624062E+02  3.3000000000E-01 0. 9.
      -1    1    4    0    0  103  1.3203011941E+02 -9.3324046800E+00  4.6326678407E+01  1.4023307826E+02  3.3000000000E-01 0. 9.
 1000023    2    5    0    0    0  2.9969668486E+02  7.9252376533E+01  3.7713098621E+02  5.5734203075E+02  2.6889276000E+02 0. 9.
       2    1    5    0  103    0  6.3983338789E+01  6.8581320678E+00 -1.7206853556E+02  1.8370789707E+02  3.3000000000E-01 0. 9.
      -2    1    5    0    0  104 -4.6813439360E+00 -5.8417617430E+00  3.5106215894E+02  3.5114212151E+02  3.3000000000E-01 0. 9.
 1000022    1    7    0    0    0 -3.6746429501E+02 -4.1647661722E+01 -1.7865892083E+02  4.3048186066E+02  1.2896157000E+02 0. 9.
     -24    2    7    0    0    0 -6.5547507278E+01 -6.2072001347E+01 -4.3103251600E+00  1.2098414759E+02  8.0431188000E+01 0. 9.
 1000022    1   10    0    0    0  1.7405657936E+02  1.1913948056E+01  1.6988104482E+02  2.7555088623E+02  1.2896157000E+02 0. 9.
      25    2   10    0    0    0  1.2564010551E+02  6.7338428477E+01  2.0724994139E+02  2.8179114453E+02  1.2701893900E+02 0. 9.
       3    1   14    0  105    0  1.6087836776E+01 -2.6514487823E+01 -7.3504919359E+00  3.1876578994E+01  5.0000000000E-01 0. 9.
      -4    1   14    0    0  105 -8.1635344054E+01 -3.5557513524E+01  3.0401667760E+00  8.9107568595E+01  1.5000000000E+00 0. 9.
       5    1   16    0  106    0  2.4492772925E+01  7.3584310533E+01  4.3196882902E+01  8.8901953717E+01  4.8000000000E+00 0. 9.
      -5    1   16    0    0  106  1.0114733258E+02 -6.2458820568E+00  1.6405305849E+02  1.9288919081E+02  4.8000000000E+00 0. 9.
</event>
<event>
    24   259  1.000000E+00  9.757243E+02  7.974997E-03  9.298923E-02
      21   -1    0    0  101  102  0.0000000000E+00  0.0000000000E+00  5.1723454541E+02  5.1723454541E+02  0.0000000000E+00 0. 9.
       2   -1    0    0  102    0  0.0000000000E+00  0.0000000000E+00 -2.1919225335E+03  2.1919225335E+03  0.0000000000E+00 0. 9.
 1000021    2    1    2  101  103  2.9252760312E+02 -3.1394865860E+01 -2.4728295507E+02  9.4656889001E+02  8.6503512500E+02 0. 9.
 2000002    2    1    2  103    0 -2.9252760312E+02  3.1394865860E+01 -1.4274050331E+03  1.7625881889E+03  9.9129912700E+02 0. 9.
-1000024    2    3    0    0    0 -4.5690688437E+01  6.0890470269E+01  1.1174580920E+02  3.0110203936E+02  2.6903535800E+02 0. 9.
       6    2    3    0  101    0  7.5102704004E+01 -4.1581234671E+00 -3.1097320894E+02  3.6381352753E+02  1.7320000000E+02 0. 9.
      -5    1    3    0    0  103  2.6311558756E+02 -8.8127212662E+01 -4.8055555334E+01  2.8165332312E+02  4.8000000000E+00 0. 9.
 1000021    2    4    0  103  104 -1.7865237266E+02 -6.3782240913E+01 -1.2274611343E+03  1.5135823229E+03  8.6503512500E+02 0. 9.
       2    1    4    0  104    0 -1.1387523047E+02  9.5177106773E+01 -1.9994389876E+02  2.4900586603E+02  3.3000000000E-01 0. 9.
 1000022    1    5    0    0    0  2.8529600697E+01 -2.5030501342E+01  8.6037857784E+01  1.5960596362E+02  1.2896157000E+02 0. 9.
     -24    2    5    0    0    0 -7.4220289135E+01  8.5920971611E+01  2.5707951417E+01  1.4149607574E+02  8.0431188000E+01 0. 9.
      24    2    6    0    0    0  1.6331632118E+01  5.9855223768E+01 -1.5881274627E+02  1.8852064714E+02  8.0431188000E+01 0. 9.
       5    1    6    0  101    0  5.8771071886E+01 -6.4013347235E+01 -1.5216046267E+02  1.7529288039E+02  4.8000000000E+00 0. 9.
-1000024    2    8    0    0    0  4.3757626000E+01 -9.2419334666E+01 -6.4718544089E+02  7.0829731187E+02  2.6903535800E+02 0. 9.
       2    1    8    0  103    0 -9.2676089236E+01  1.3750774831E+02  3.2981230132E+01  1.6907131277E+02  3.3000000000E-01 0. 9.
      -1    1    8    0    0  104 -1.2973390942E+02 -1.0887065456E+02 -6.1325692355E+02  6.3621369826E+02  3.3000000000E-01 0. 9.
      11    1   11    0    0    0 -4.6790967657E+01  8.5300451980E+01  4.5757911895E+01  1.0751440956E+02  5.1000000000E-04 0. 9.
     -12    1   11    0    0    0 -2.7429321478E+01  6.2051963081E-01 -2.0049960478E+01  3.3981666182E+01  0.0000000000E+00 0. 9.
     -13    1   12    0    0    0 -1.6887811266E+01  1.5065302025E+01 -2.7542420807E+00  2.2798212824E+01  1.0566000000E-01 0. 9.
      14    1   12    0    0    0  3.3219443384E+01  4.4789921743E+01 -1.5605850419E+02  1.6572243432E+02  0.0000000000E+00 0. 9.
 1000022    1   14    0    0    0 -5.2616907476E+01 -1.6319419945E+01 -3.4234500197E+02  3.6995411787E+02  1.2896157000E+02 0. 9.
     -24    2   14    0    0    0  9.6374533476E+01 -7.6099914721E+01 -3.0484043892E+02  3.3834319400E+02  8.0431188000E+01 0. 9.
       3    1   22    0  105    0  7.5204926512E+01 -2.9674955264E+01 -1.0751266105E+02  1.3451991015E+02  5.0000000000E-01 0. 9.
      -4    1   22    0    0  105  2.1169606964E+01 -4.6424959457E+01 -1.9732777787E+02  2.0382328385E+02  1.5000000000E+00 0. 9.
</event>
<event>
    16   271  1.000000E+00  1.124159E+03  7.987984E-03  9.151873E-02
       1   -1    0    0  101    0  0.0000000000E+00  0.0000000000E+00  1.0134747454E+03  1.0134747454E+03  0.0000000000E+00 0. 9.
       2   -1    0    0  102    0  0.0000000000E+00  0.0000000000E+00 -1.3042946983E+03  1.3042946983E+03  0.0000000000E+00 0. 9.
 1000001    2    1    2  102    0  4.6406889365E+02 -2.4999101389E+02  9.7475555886E+01  1.1296138849E+03  9.9431916400E+02 0. 9.
 1000002    2    1    2  101    0 -4.6406889365E+02  2.4999101389E+02 -3.8829550885E+02  1.1881555588E+03  9.9150632100E+02 0. 9.
-1000024    2    3    0    0    0  1.6553617827E+02 -5.3997659602E+02 -1.5279039561E+02  6.4397350831E+02  2.6903535800E+02 0. 9.
       2    1    3    0  102    0  2.9853271538E+02  2.8998558213E+02  2.5026595150E+02  4.8564037659E+02  3.3000000000E-01 0. 9.
 1000024    2    4    0    0    0 -7.2409321290E+02  1.7638467185E+02 -4.4964973930E+02  9.1103646762E+02  2.6903535800E+02 0. 9.
       1    1    4    0  101    0  2.6002431925E+02  7.3606342042E+01  6.1354230459E+01  2.7711909116E+02  3.3000000000E-01 0. 9.
 1000022    1    5    0    0    0  9.9282856334E+01 -2.1182953480E+02  4.0727271677E-01  2.6713309376E+02  1.2896157000E+02 0. 9.
     -24    2    5    0    0    0  6.6253321933E+01 -3.2814706123E+02 -1.5319766833E+02  3.7684041455E+02  8.0431188000E+01 0. 9.
 1000022    1    7    0    0    0 -2.7757930171E+02  1.4497880088E+00 -1.7209360496E+02  3.5114052177E+02  1.2896157000E+02 0. 9.
      24    2    7    0    0    0 -4.4651391119E+02  1.7493488384E+02 -2.7755613435E+02  5.5989594585E+02  8.0431188000E+01 0. 9.
       3    1   10    0  103    0  5.3552330169E+01 -3.2691141107E+02 -1.4970431422E+02  3.6352517719E+02  5.0000000000E-01 0. 9.
      -4    1   10    0    0  103  1.2700991764E+01 -1.2356501520E+00 -3.4933541018E+00  1.3315237361E+01  1.5000000000E+00 0. 9.
      -3    1   12    0    0  104 -2.5113791966E+02  1.2788893995E+02 -1.2879579505E+02  3.0986197327E+02  5.0000000000E-01 0. 9.
       4    1   12    0  104    0 -1.9537599152E+02  4.7045943890E+01 -1.4876033929E+02  2.5003397259E+02  1.5000000000E+00 0. 9.
</event>
<event>
    12   276  1.000000E+00  1.012217E+03  7.978360E-03  9.260342E-02
      -2   -1    0    0    0  101  0.0000000000E+00  0.0000000000E+00  4.1994981993E+02  4.1994981993E+02  0.0000000000E+00 0. 9.
       2   -1    0    0  101    0  0.0000000000E+00  0.0000000000E+00 -2.5892791157E+03  2.5892791157E+03  0.0000000000E+00 0. 9.
-2000002    2    1    2    0  102  6.8849502987E+01 -1.9226177410E+02 -1.4461039427E+03  1.7651049307E+03  9.9129912700E+02 0. 9.
 1000002    2    1    2  102    0 -6.8849502987E+01  1.9226177410E+02 -7.2322535298E+02  1.2441240049E+03  9.9150632100E+02 0. 9.
 1000022    1    3    0    0    0 -1.1923745604E+01 -2.7176334037E+02  1.3268693320E+01  3.0133807200E+02  1.2896157000E+02 0. 9.
      -2    1    3    0    0  102  8.0773248591E+01  7.9501566268E+01 -1.4593726361E+03  1.4637668587E+03  3.3000000000E-01 0. 9.
 1000024    2    4    0    0    0  1.1647968180E+02  5.2261368290E+02 -2.8097242807E+02  6.6182936397E+02  2.6903535800E+02 0. 9.
       1    1    4    0  102    0 -1.8532918479E+02 -3.3035190880E+02 -4.4225292491E+02  5.8229464095E+02  3.3000000000E-01 0. 9.
 1000022    1    7    0    0    0 -2.1457409257E+01  2.6963958465E+02 -1.2831405476E+02  3.2597777410E+02  1.2896157000E+02 0. 9.
      24    2    7    0    0    0  1.3793709106E+02  2.5297409825E+02 -1.5265837330E+02  3.3585158987E+02  8.0431188000E+01 0. 9.
      -3    1   10    0    0  103  8.8588624035E+01  8.3132612154E+01 -7.4237265798E+01  1.4237414493E+02  5.0000000000E-01 0. 9.
       4    1   10    0  103    0  4.9348467022E+01  1.6984148610E+02 -7.8421107506E+01  1.9347744494E+02  1.5000000000E+00 0. 9.
</event>
<event>
    21   258  1.000000E+00  9.481886E+02  7.972376E-03  9.329225E-02
      -2   -1    0    0    0  101  0.0000000000E+00  0.0000000000E+00  1.5604656298E+03  1.5604656298E+03  0.0000000000E+00 0. 9.
      21   -1    0    0  101  102  0.0000000000E+00  0.0000000000E+00 -5.7908589176E+02  5.7908589176E+02  0.0000000000E+00 0. 9.
-1000002    2    1    2    0  103 -1.5006559635E+02  1.0419508009E+02  4.1945288022E+02  1.0919715203E+03  9.9150632100E+02 0. 9.
 1000021    2    1    2  103  102  1.5006559635E+02 -1.0419508009E+02  5.6192685780E+02  1.0475800012E+03  8.6503512500E+02 0. 9.
 1000023    2    3    0    0    0  9.9504518217E+01 -1.4627209932E+02  6.1044555949E+02  6.9010417596E+02  2.6889276000E+02 0. 9.
      -2    1    3    0    0  103 -2.4957011456E+02  2.5046717941E+02 -1.9099267927E+02  4.0186734438E+02  3.3000000000E-01 0. 9.
-1000024    2    4    0    0    0  9.5983937741E+01  1.5131786678E+02 -5.0202702163E+01  3.2712436209E+02  2.6903535800E+02 0. 9.
       6    2    4    0  103    0 -2.9542520924E+01 -1.9051287439E+02  3.3367110863E+02  4.2249563853E+02  1.7320000000E+02 0. 9.
      -5    1    4    0    0  102  8.3624179529E+01 -6.5000072487E+01  2.7845845134E+02  2.9796000058E+02  4.8000000000E+00 0. 9.
 1000022    1    5    0    0    0  5.8370532502E+01 -3.3152426450E+01  2.4423798744E+02  2.8423490899E+02  1.2896157000E+02 0. 9.
      25    2    5    0    0    0  4.1133985715E+01 -1.1311967287E+02  3.6620757206E+02  4.0586926697E+02  1.2701893900E+02 0. 9.
 1000022    1    7    0    0    0  7.9285897244E+01  6.6913012479E+01  4.9557330242E+01  1.7277332045E+02  1.2896157000E+02 0. 9.
     -24    2    7    0    0    0  1.6698040497E+01  8.4404854305E+01 -9.9760032405E+01  1.5435104164E+02  8.0431188000E+01 0. 9.
      24    2    8    0    0    0  2.6445520335E+01 -8.7428296024E+01  8.7922471050E+01  1.5014196419E+02  8.0431188000E+01 0. 9.
       5    1    8    0  103    0 -5.5988041259E+01 -1.0308457836E+02  2.4574863758E+02  2.7235367435E+02  4.8000000000E+00 0. 9.
       5    1   11    0  104    0 -3.1658612781E+01 -9.1583814934E+01  1.7512368279E+02  2.0020291505E+02  4.8000000000E+00 0. 9.
      -5    1   11    0    0  104  7.2792598496E+01 -2.1535857940E+01  1.9108388927E+02  2.0566635192E+02  4.8000000000E+00 0. 9.
       3    1   13    0  105    0  6.4470910544E+00 -1.5453010205E+01 -9.0140842515E+00  1.9022729098E+01  5.0000000000E-01 0. 9.
      -4    1   13    0    0  105  1.0250949442E+01  9.9857864510E+01 -9.0745948154E+01  1.3532831254E+02  1.5000000000E+00 0. 9.
      -3    1   14    0    0  106  5.5032069266E+01 -6.6060381521E+01  6.2588764981E+01  1.0634898286E+02  5.0000000000E-01 0. 9.
       4    1   14    0  106    0 -2.8586548931E+01 -2.1367914503E+01  2.5333706069E+01  4.3792981323E+01  1.5000000000E+00 0. 9.
</event>
<event>
    20   259  1.000000E+00  9.514036E+02  7.972686E-03  9.325632E-02
      21   -1    0    0  101  102  0.0000000000E+00  0.0000000000E+00  9.9296351309E+02  9.9296351309E+02  0.0000000000E+00 0. 9.
       1   -1    0    0  102    0  0.0000000000E+00  0.0000000000E+00 -9.0840054597E+02  9.0840054597E+02  0.0000000000E+00 0. 9.
 1000021    2    1    2  101  103 -1.1846821763E+02 -1.5890642504E+02  6.5486557618E+01  8.8986528600E+02  8.6503512500E+02 0. 9.
 2000001    2    1    2  103    0  1.1846821763E+02  1.5890642504E+02  1.9076409501E+01  1.0114987731E+03  9.9170554500E+02 0. 9.
 1000023    2    3    0    0    0 -1.6155635883E+02 -2.9764286520E+02 -1.5784114193E+01  4.3271721357E+02  2.6889276000E+02 0. 9.
       3    1    3    0  101    0  2.0422811943E+02  1.6787311532E+02 -1.9140102152E+01  2.6506056124E+02  5.0000000000E-01 0. 9.
      -3    1    3    0    0  103 -1.6113997824E+02 -2.9136675160E+01  1.0041077396E+02  1.9208751119E+02  5.0000000000E-01 0. 9.
 1000021    2    4    0  103  104  3.9012190419E+01  1.4640224585E+02 -8.2342867465E+01  8.8205537462E+02  8.6503512500E+02 0. 9.
       1    1    4    0  104    0  7.9456027214E+01  1.2504179187E+01  1.0141927697E+02  1.2944339843E+02  3.3000000000E-01 0. 9.
 1000022    1    5    0    0    0 -3.7550410839E+01 -1.3949538872E+02  7.8038064056E+00  1.9380656016E+02  1.2896157000E+02 0. 9.
      25    2    5    0    0    0 -1.2400594799E+02 -1.5814747648E+02 -2.3587920599E+01  2.3891065341E+02  1.2701893900E+02 0. 9.
-1000024    2    8    0    0    0  3.1279546685E+02  2.3042158669E+02 -6.4500907506E+01  4.7694391978E+02  2.6903535800E+02 0. 9.
       2    1    8    0  103    0 -4.8772706187E+01 -2.5848821195E+01 -1.3426766694E+02  1.4517180757E+02  3.3000000000E-01 0. 9.
      -1    1    8    0    0  104 -2.2501057024E+02 -5.8170519638E+01  1.1642570699E+02  2.5993964727E+02  3.3000000000E-01 0. 9.
       5    1   11    0  105    0 -5.6951636273E+01 -6.1851221096E+01  5.2254773276E+01  9.9109352512E+01  4.8000000000E+00 0. 9.
      -5    1   11    0    0  105 -6.7054311716E+01 -9.6296255379E+01 -7.5842693875E+01  1.3980130090E+02  4.8000000000E+00 0. 9.
 1000022    1   12    0    0    0  9.5241890680E+01  2.4508191362E+01 -2.9087037405E+01  1.6476896390E+02  1.2896157000E+02 0. 9.
     -24    2   12    0    0    0  2.1755357617E+02  2.0591339532E+02 -3.5413870101E+01  3.1217495588E+02  8.0431188000E+01 0. 9.
       3    1   18    0  106    0 -4.1803580276E+00  8.4430368612E-02 -7.1685581996E+00  8.3138888846E+00  5.0000000000E-01 0. 9.
      -4    1   18    0    0  106  2.2173393420E+02  2.0582896496E+02 -2.8245311902E+01  3.0386106699E+02  1.5000000000E+00 0. 9.
</event>
<event>
    15   271  1.000000E+00  1.085034E+03  7.984731E-03  9.188220E-02
       2   -1    0    0  101    0  0.0000000000E+00  0.0000000000E+00  1.0524436626E+03  1.0524436626E+03  0.0000000000E+00 0. 9.
       2   -1    0    0  102    0  0.0000000000E+00  0.0000000000E+00 -1.6596925958E+03  1.6596925958E+03  0.0000000000E+00 0. 9.
 1000002    2    1    2  102    0 -4.2027260491E+02 -1.3261070535E+02  4.7064077267E+02  1.1827096783E+03  9.9150632100E+02 0. 9.
 1000002    2    1    2  101    0  4.2027260491E+02  1.3261070535E+02 -1.0778897058E+03  1.5294265802E+03  9.9150632100E+02 0. 9.
 1000021    2    3    0  102  103 -2.7349118827E+02 -1.6053838692E+02  4.6774355659E+02  1.0332665706E+03  8.6503512500E+02 0. 9.
       2    1    3    0  103    0 -1.4678141664E+02  2.7927681564E+01  2.8972160824E+00  1.4944310766E+02  3.3000000000E-01 0. 9.
 1000024    2    4    0    0    0 -3.3467068056E+01  2.4353804361E+02 -1.0812603988E+01  3.6459259398E+02  2.6903535800E+02 0. 9.
       1    1    4    0  101    0  4.5373967296E+02 -1.1092733825E+02 -1.0670771018E+03  1.1648339862E+03  3.3000000000E-01 0. 9.
 1000022    1    5    0    0    0  4.9997836344E+01 -7.3907339424E+00 -6.4941751683E+01  1.5298014327E+02  1.2896157000E+02 0. 9.
       2    1    5    0  102    0 -3.5226249040E+02  4.8335736444E+01  5.3365833015E+01  3.5954586160E+02  3.3000000000E-01 0. 9.
      -2    1    5    0    0  103  2.8773465787E+01 -2.0148338942E+02  4.7931947526E+02  5.2074056574E+02  3.3000000000E-01 0. 9.
 1000022    1    7    0    0    0 -9.0378414127E+01  2.0068748705E+02 -2.4538958899E+01  2.5627518850E+02  1.2896157000E+02 0. 9.
      24    2    7    0    0    0  5.6911346070E+01  4.2850556554E+01  1.3726354911E+01  1.0831740548E+02  8.0431188000E+01 0. 9.
     -15    1   13    0    0    0 -1.5629565861E+01 -4.9029024248E+00  1.3764268952E+01  2.1469387741E+01  1.7770000000E+00 0. 9.
      16    1   13    0    0    0  7.2540911932E+01  4.7753458979E+01 -3.7914041684E-02  8.6848017743E+01  0.0000000000E+00 0. 9.
</event>
<event>
    12   226  1.000000E+00  3.146323E+02  7.872698E-03  1.066899E-01
       2   -1    0    0  101    0  0.0000000000E+00  0.0000000000E+00  3.5535823609E+02  3.5535823609E+02  0.0000000000E+00 0. 9.
      -2   -1    0    0    0  101  0.0000000000E+00  0.0000000000E+00 -3.7666304568E+02  3.7666304568E+02  0.0000000000E+00 0. 9.
 1000024    2    1    2    0    0  1.9987835555E+00 -1.6312407276E+02 -1.9743137535E+02  3.7144667192E+02  2.6903535800E+02 0. 9.
-1000024    2    1    2    0    0 -1.9987835555E+00  1.6312407276E+02  1.7612656576E+02  3.6057460985E+02  2.6903535800E+02 0. 9.
 1000022    1    3    0    0    0  2.5932339713E+01 -1.8536926863E+02 -1.5224510159E+02  2.7357614934E+02  1.2896157000E+02 0. 9.
      24    2    3    0    0    0 -2.3933556157E+01  2.2245195864E+01 -4.5186273760E+01  9.7870522573E+01  8.0431188000E+01 0. 9.
 1000022    1    4    0    0    0  8.0642752406E+01  1.0956468187E+02  1.0258688183E+02  2.1368862368E+02  1.2896157000E+02 0. 9.
     -24    2    4    0    0    0 -8.2641535962E+01  5.3559390887E+01  7.3539683928E+01  1.4688598617E+02  8.0431188000E+01 0. 9.
      -3    1    6    0    0  102 -6.0240621830E+00  4.0619363116E+01 -5.6450835818E+01  6.9808085847E+01  5.0000000000E-01 0. 9.
       4    1    6    0  102    0 -1.7909493974E+01 -1.8374167252E+01  1.1264562058E+01  2.8062436726E+01  1.5000000000E+00 0. 9.
      11    1    8    0    0    0 -7.5579322337E+01  8.8791346361E+00  2.3983623141E+01  7.9789016638E+01  5.1000000000E-04 0. 9.
     -12    1    8    0    0    0 -7.0622136249E+00  4.4680256251E+01  4.9556060787E+01  6.7096969534E+01  0.0000000000E+00 0. 9.
</event>
<event>
    12   230  1.000000E+00  3.873756E+02  7.891300E-03  1.038773E-01
      -2   -1    0    0    0  101  0.0000000000E+00  0.0000000000E+00  5.6260135069E+02  5.6260135069E+02  0.0000000000E+00 0. 9.
       1   -1    0    0  101    0  0.0000000000E+00  0.0000000000E+00 -3.7073137338E+02  3.7073137338E+02  0.0000000000E+00 0. 9.
-1000024    2    1    2    0    0 -2.5108264155E+02 -1.2114313228E+02 -1.5123253165E+02  4.1589596520E+02  2.6903535800E+02 0. 9.
 1000023    2    1    2    0    0  2.5108264155E+02  1.2114313228E+02  3.4310250897E+02  5.1743675887E+02  2.6889276000E+02 0. 9.
 1000022    1    3    0    0    0 -1.9947572043E+02 -2.1143249383E+01 -1.4136760600E+02  2.7722461399E+02  1.2896157000E+02 0. 9.
     -24    2    3    0    0    0 -5.1606921121E+01 -9.9999882895E+01 -9.8649256476E+00  1.3867135121E+02  8.0431188000E+01 0. 9.
 1000022    1    4    0    0    0  1.6893198162E+02  4.8200941693E+01  1.7134899917E+02  2.7722357628E+02  1.2896157000E+02 0. 9.
      25    2    4    0    0    0  8.2150659933E+01  7.2942190585E+01  1.7175350980E+02  2.4021318259E+02  1.2701893900E+02 0. 9.
      11    1    6    0    0    0  1.2290006361E+01 -5.9164670480E+01  7.4602453997E+00  6.0886433227E+01  5.1000000000E-04 0. 9.
     -12    1    6    0    0    0 -6.3896927482E+01 -4.0835212414E+01 -1.7325171047E+01  7.7784917988E+01  0.0000000000E+00 0. 9.
       5    1    8    0  102    0  4.4175286133E+01 -1.3872168141E+01  3.0375839767E+00  4.6649328722E+01  4.8000000000E+00 0. 9.
      -5    1    8    0    0  102  3.7975373801E+01  8.6814358726E+01  1.6871592582E+02  1.9356385386E+02  4.8000000000E+00 0. 9.
</event>
<event>
    24   259  1.000000E+00  1.050217E+03  7.981739E-03  9.221940E-02
      21   -1    0    0  101  102  0.0000000000E+00  0.0000000000E+00  6.7576542136E+02  6.7576542136E+02  0.0000000000E+00 0. 9.
       1   -1    0    0  102    0  0.0000000000E+00  0.0000000000E+00 -1.9033011155E+03  1.9033011155E+03  0.0000000000E+00 0. 9.
 1000021    2    1    2  101  103 -4.8675152349E+02 -1.2113133653E+01 -1.0759841884E+03  1.4639335759E+03  8.6503512500E+02 0. 9.
 2000001    2    1    2  103    0  4.8675152349E+02  1.2113133653E+01 -1.5155150575E+02  1.1151329609E+03  9.9170554500E+02 0. 9.
 1000023    2    3    0    0    0 -2.9622350452E+02 -6.9918827451E+00 -2.2936661534E+02  4.6120452260E+02  2.6889276000E+02 0. 9.
       5    1    3    0  101    0 -1.9054899593E+02  8.8009638083E+01 -8.7922070287E+02  9.0393954478E+02  4.8000000000E+00 0. 9.
      -5    1    3    0    0  103  2.0976967981E-02 -9.3130888991E+01  3.2603129843E+01  9.8789508551E+01  4.8000000000E+00 0. 9.
 1000021    2    4    0  103  104  5.3432066672E+02 -2.8887817273E+01 -1.9897044403E+02  1.0364401024E+03  8.6503512500E+02 0. 9.
       1    1    4    0  104    0 -4.7569143238E+01  4.1000950925E+01  4.7418938281E+01  7.8692858462E+01  3.3000000000E-01 0. 9.
 1000022    1    5    0    0    0 -1.2452545866E+02  2.7154848904E+01 -1.3048435465E+02  2.2338582994E+02  1.2896157000E+02 0. 9.
      25    2    5    0    0    0 -1.7169804586E+02 -3.4146731650E+01 -9.8882260692E+01  2.3781869266E+02  1.2701893900E+02 0. 9.
 1000024    2    8    0    0    0 -1.5004322835E-01 -9.2789837933E+01  5.9194364083E+01  2.9067847036E+02  2.6903535800E+02 0. 9.
      -6    2    8    0    0  104  2.8526977648E+01  4.7421467989E+01 -1.0337903670E+01  1.8212000530E+02  1.7320000000E+02 0. 9.
       5    1    8    0  103    0  5.0594373230E+02  1.6480552672E+01 -2.4782690445E+02  5.6364162678E+02  4.8000000000E+00 0. 9.
       5    1   11    0  105    0 -1.5348660674E+02 -3.8105736189E+01 -2.3422181000E+01  1.5994319036E+02  4.8000000000E+00 0. 9.
      -5    1   11    0    0  105 -1.8211439120E+01  3.9590045390E+00 -7.5460079693E+01  7.7875502303E+01  4.8000000000E+00 0. 9.
 1000022    1   12    0    0    0 -6.4966521462E+01 -1.0416688508E+01  6.4404923310E+01  1.5845578877E+02  1.2896157000E+02 0. 9.
      24    2   12    0    0    0  6.4816478233E+01 -8.2373149425E+01 -5.2105592270E+00  1.3222268159E+02  8.0431188000E+01 0. 9.
     -24    2   13    0    0    0 -4.6265683549E+01 -3.0749621668E-02  2.1635557928E-01  9.2788669743E+01  8.0431188000E+01 0. 9.
      -5    1   13    0    0  104  7.4792661197E+01  4.7452217610E+01 -1.0554259249E+01  8.9331335562E+01  4.8000000000E+00 0. 9.
      -1    1   18    0    0  106  4.9275686277E+01 -7.8889787169E+00  1.7391328063E+01  5.2847861216E+01  3.3000000000E-01 0. 9.
       2    1   18    0  106    0  1.5540791956E+01 -7.4484170708E+01 -2.2601887290E+01  7.9374820376E+01  3.3000000000E-01 0. 9.
       3    1   19    0  107    0 -2.6036874774E+01  3.6096658724E+01  1.7623472490E+01  4.7871958406E+01  5.0000000000E-01 0. 9.
      -2    1   19    0    0  107 -2.0228808775E+01 -3.6127408345E+01 -1.7407116910E+01  4.4916711337E+01  3.3000000000E-01 0. 9.
</event>
<event>
    12   230  1.000000E+00  3.353605E+02  7.878395E-03  1.058111E-01
      -2   -1    0    0    0  101  0.0000000000E+00  0.0000000000E+00  5.2802547492E+02  5.2802547492E+02  0.0000000000E+00 0. 9.
       1   -1    0    0  101    0  0.0000000000E+00  0.0000000000E+00 -3.3684101238E+02  3.3684101238E+02  0.0000000000E+00 0. 9.
-1000024    2    1    2    0    0  1.8241306168E+02  8.2767641393E+01 -1.6660669003E+02  3.7451678273E+02  2.6903535800E+02 0. 9.
 1000023    2    1    2    0    0 -1.8241306168E+02 -8.2767641393E+01  3.5779115257E+02  4.9034970457E+02  2.6889276000E+02 0. 9.
 1000022    1    3    0    0    0  1.3300045448E+02  9.3540719849E-01 -2.7071063584E+01  1.8722693423E+02  1.2896157000E+02 0. 9.
     -24    2    3    0    0    0  4.9412607194E+01  8.1832234195E+01 -1.3953562645E+02  1.8728984851E+02  8.0431188000E+01 0. 9.
 1000022    1    4    0    0    0 -1.3588090157E+02 -6.0263224572E+01  2.3246032426E+02  3.0457210072E+02  1.2896157000E+02 0. 9.
      25    2    4    0    0    0 -4.6532160109E+01 -2.2504416821E+01  1.2533082831E+02  1.8577760384E+02  1.2701893900E+02 0. 9.
      15    1    6    0    0    0  5.3807398176E+01  5.6517714052E+01 -4.6687970996E+01  9.0952803502E+01  1.7770000000E+00 0. 9.
     -16    1    6    0    0    0 -4.3947909817E+00  2.5314520143E+01 -9.2847655450E+01  9.6337045005E+01  0.0000000000E+00 0. 9.
       5    1    8    0  102    0 -8.5465812548E+01 -3.7365556932E+01  7.2028843530E+01  1.1794822703E+02  4.8000000000E+00 0. 9.
      -5    1    8    0    0  102  3.8933652439E+01  1.4861140111E+01  5.3301984779E+01  6.7829376815E+01  4.8000000000E+00 0. 9.
</event>
<event>
    12   226  1.000000E+00  3.486394E+02  7.881866E-03  1.052833E-01
      -2   -1    0    0    0  101  0.0000000000E+00  0.0000000000E+00  4.8532826837E+02  4.8532826837E+02  0.0000000000E+00 0. 9.
       2   -1    0    0  101    0  0.0000000000E+00  0.0000000000E+00 -2.6549083777E+02  2.6549083777E+02  0.0000000000E+00 0. 9.
-1000024    2    1    2    0    0  1.0184364773E+02  1.9697024806E+02  1.9927956994E+02  4.0157412523E+02  2.6903535800E+02 0. 9.
 1000024    2    1    2    0    0 -1.0184364773E+02 -1.9697024806E+02  2.0557860662E+01  3.4924498091E+02  2.6903535800E+02 0. 9.
 1000022    1    3    0    0    0  5.2333955059E+00  1.8569572858E+01  7.4951074377E+01  1.5040268466E+02  1.2896157000E+02 0. 9.
     -24    2    3    0    0    0  9.6610252221E+01  1.7840067520E+02  1.2432849557E+02  2.5117144057E+02  8.0431188000E+01 0. 9.
 1000022    1    4    0    0    0 -2.8391722049E+01 -3.4667199209E+01  6.1175442833E+01  1.4960423097E+02  1.2896157000E+02 0. 9.
      24    2    4    0    0    0 -7.3451925679E+01 -1.6230304885E+02 -4.0617582172E+01  1.9964074994E+02  8.0431188000E+01 0. 9.
       3    1    6    0  102    0  6.9905770333E+01  7.3381039771E+01  9.4971280721E+01  1.3889344076E+02  5.0000000000E-01 0. 9.
      -4    1    6    0    0  102  2.6704481889E+01  1.0501963543E+02  2.9357214844E+01  1.1227799982E+02  1.5000000000E+00 0. 9.
     -13    1    8    0    0    0 -5.4606298929E+01 -6.1036791710E+01  1.3944906587E+01  8.3077129276E+01  1.0566000000E-01 0. 9.
      14    1    8    0    0    0 -1.8845626750E+01 -1.0126625714E+02 -5.4562488759E+01  1.1656362067E+02  0.0000000000E+00 0. 9.
</event>
<event>
    18   244  1.000000E+00  9.012844E+02  7.967737E-03  9.383415E-02
      21   -1    0    0  101  102  0.0000000000E+00  0.0000000000E+00  1.8069326154E+03  1.8069326154E+03  0.0000000000E+00 0. 9.
      21   -1    0    0  103  101  0.0000000000E+00  0.0000000000E+00 -4.5688446653E+02  4.5688446653E+02  0.0000000000E+00 0. 9.
 1000021    2    1    2  103  104  1.6533110098E+02 -1.9155550377E+02  5.3164818098E+02  1.0464050075E+03  8.6503512500E+02 0. 9.
 1000021    2    1    2  104  102 -1.6533110098E+02  1.9155550377E+02  8.1839996794E+02  1.2174120744E+03  8.6503512500E+02 0. 9.
 1000024    2    3    0    0    0  9.4550602109E+01 -8.3186935479E+01  5.6091115041E+01  3.0230137220E+02  2.6903535800E+02 0. 9.
      -4    1    3    0    0  104 -7.4220370963E+01  1.9700974605E+02  2.9032870307E+02  3.5862865102E+02  1.5000000000E+00 0. 9.
       3    1    3    0  103    0  1.4500086983E+02 -3.0537831434E+02  1.8522836287E+02  3.8547498432E+02  5.0000000000E-01 0. 9.
 1000023    2    4    0    0    0 -3.5424402888E+02  2.5454508104E+02  8.6486110602E+02  1.0052711472E+03  2.6889276000E+02 0. 9.
       2    1    4    0  104    0  1.8848377325E+02 -5.5612119601E+01 -5.1545655097E+01  2.0316472156E+02  3.3000000000E-01 0. 9.
      -2    1    4    0    0  102  4.2915464562E-01 -7.3774576701E+00  5.0845170163E+00  8.9762056946E+00  3.3000000000E-01 0. 9.
 1000022    1    5    0    0    0  1.1269491590E+02 -1.1136331120E+02  6.5814852629E+01  2.1462668174E+02  1.2896157000E+02 0. 9.
      24    2    5    0    0    0 -1.8144313791E+01  2.8176375720E+01 -9.7237375886E+00  8.7674690461E+01  8.0431188000E+01 0. 9.
 1000022    1    8    0    0    0 -1.1031109620E+02  9.8800196357E+01  3.3264495238E+02  3.8628197943E+02  1.2896157000E+02 0. 9.
      25    2    8    0    0    0 -2.4393293267E+02  1.5574488469E+02  5.3221615364E+02  6.1898916776E+02  1.2701893900E+02 0. 9.
     -11    1   12    0    0    0  2.4917723438E+01  2.8795734466E+01  1.1340522113E+01  3.9732791329E+01  5.1000000000E-04 0. 9.
      12    1   12    0    0    0 -4.3062037229E+01 -6.1935874633E-01 -2.1064259701E+01  4.7941899132E+01  0.0000000000E+00 0. 9.
      21    1   14    0  105  106 -8.4767176543E-01  2.6768916647E+01  9.7825836781E+00  2.8513021399E+01  0.0000000000E+00 0. 9.
      21    1   14    0  106  105 -2.4308526091E+02  1.2897596804E+02  5.2243356996E+02  5.9047614636E+02  0.0000000000E+00 0. 9.
</event>
<event>
     6   247  1.000000E+00  9.630186E+02  7.973797E-03  9.312773E-02
       2   -1    0    0  101    0  0.0000000000E+00  0.0000000000E+00  1.7284385490E+03  1.7284385490E+03  0.0000000000E+00 0. 9.
      21   -1    0    0  102  101  0.0000000000E+00  0.0000000000E+00 -5.2189362721E+02  5.2189362721E+02  0.0000000000E+00 0. 9.
 2000002    2    1    2  102    0 -5.3159950287E+02 -3.8099111090E+02  5.2988633501E+02  1.3004636655E+03  9.9129912700E+02 0. 9.
 1000022    1    1    2    0    0  5.3159950287E+02  3.8099111090E+02  6.7665858675E+02  9.4986851069E+02  1.2896157000E+02 0. 9.
 1000022    1    3    0    0    0 -7.1294771210E+02 -1.1210129451E+01  5.1382523151E+02  8.8829474966E+02  1.2896157000E+02 0. 9.
       2    1    3    0  102    0  1.8134820923E+02 -3.6978098145E+02  1.6061103500E+01  4.1216891583E+02  3.3000000000E-01 0. 9.
</event>
<event>
    12   230  1.000000E+00  3.624112E+02  7.885333E-03  1.047619E-01
      -1   -1    0    0    0  101  0.0000000000E+00  0.0000000000E+00  3.0259047110E+02  3.0259047110E+02  0.0000000000E+00 0. 9.
       2   -1    0    0  101    0  0.0000000000E+00  0.0000000000E+00 -4.3574160592E+02  4.3574160592E+02  0.0000000000E+00 0. 9.
 1000023    2    1    2    0    0  2.3223776557E+02  7.1174427877E+01 -8.9512254601E+01  3.7325050441E+02  2.6889276000E+02 0. 9.
 1000024    2    1    2    0    0 -2.3223776557E+02 -7.1174427877E+01 -4.3638880219E+01  3.6508157261E+02  2.6903535800E+02 0. 9.
 1000022    1    3    0    0    0  6.9420796835E+01  2.4966467914E+01 -5.7132971783E+01  1.5917862468E+02  1.2896157000E+02 0. 9.
      25    2    3    0    0    0  1.6281696874E+02  4.6207959963E+01 -3.2379282818E+01  2.1407187973E+02  1.2701893900E+02 0. 9.
 1000022    1    4    0    0    0 -8.6712139995E+01 -2.0788772382E+01 -9.5727969099E+01  1.8370111291E+02  1.2896157000E+02 0. 9.
      24    2    4    0    0    0 -1.4552562558E+02 -5.0385655496E+01  5.2089088879E+01  1.8138045970E+02  8.0431188000E+01 0. 9.
       5    1    6    0  102    0  5.0270828692E+01 -3.2823944801E+01  2.4698132891E+01  6.5096891922E+01  4.8000000000E+00 0. 9.
      -5    1    6    0    0  102  1.1254614005E+02  7.9031904764E+01 -5.7077415709E+01  1.4897498781E+02  4.8000000000E+00 0. 9.
      -3    1    8    0    0  103 -1.3862619543E+02 -3.0359891033E+01  2.0598645323E+01  1.4339978812E+02  5.0000000000E-01 0. 9.
       4    1    8    0  103    0 -6.8994301435E+00 -2.0025764462E+01  3.1490443556E+01  3.7980671584E+01  1.5000000000E+00 0. 9.
</event>
<event>
    20   264  1.000000E+00  8.974601E+02  7.967348E-03  9.387986E-02
      21   -1    0    0  101  102  0.0000000000E+00  0.0000000000E+00  1.0572630021E+03  1.0572630021E+03  0.0000000000E+00 0. 9.
      21   -1    0    0  102  103  0.0000000000E+00  0.0000000000E+00 -1.0427046943E+03  1.0427046943E+03  0.0000000000E+00 0. 9.
-1000006    2    1    2    0  103  4.9542801475E+01  1.8017861661E+02  5.5224956546E+02  1.0537619287E+03  8.7779029200E+02 0. 9.
 1000006    2    1    2  101    0 -4.9542801475E+01 -1.8017861661E+02 -5.3769125767E+02  1.0462057677E+03  8.7779029200E+02 0. 9.
 1000023    2    3    0    0    0 -5.0547893426E+01  4.5897793716E+02  4.4166014738E+02  6.9324082287E+02  2.6889276000E+02 0. 9.
      -6    2    3    0    0  103  1.0009069490E+02 -2.7879932055E+02  1.1058941808E+02  3.6052110581E+02  1.7320000000E+02 0. 9.
 1000024    2    4    0    0    0  2.5011507372E+02 -3.7624866871E+02 -4.0709488283E+02  6.6500141224E+02  2.6903535800E+02 0. 9.
       5    1    4    0  101    0 -2.9965787520E+02  1.9607005210E+02 -1.3059637485E+02  3.8120435546E+02  4.8000000000E+00 0. 9.
 1000022    1    5    0    0    0 -2.2967833965E+01  2.8915870974E+02  2.2716567196E+02  3.9035318606E+02  1.2896157000E+02 0. 9.
      25    2    5    0    0    0 -2.7580059460E+01  1.6981922743E+02  2.1449447541E+02  3.0288763681E+02  1.2701893900E+02 0. 9.
     -24    2    6    0    0    0  1.1056712487E+02 -1.6682248786E+02  2.1115272519E+01  2.1672531530E+02  8.0431188000E+01 0. 9.
      -5    1    6    0    0  103 -1.0476429965E+01 -1.1197683269E+02  8.9474145561E+01  1.4379579051E+02  4.8000000000E+00 0. 9.
 1000022    1    7    0    0    0  7.5041774484E+01 -1.2376494806E+02 -8.1897988462E+01  2.1044571114E+02  1.2896157000E+02 0. 9.
      24    2    7    0    0    0  1.7507329924E+02 -2.5248372065E+02 -3.2519689436E+02  4.5455570110E+02  8.0431188000E+01 0. 9.
       5    1   10    0  104    0 -1.1229322011E+01  4.0112313076E+01 -9.9550443477E+00  4.3095687036E+01  4.8000000000E+00 0. 9.
      -5    1   10    0    0  104 -1.6350737449E+01  1.2970691435E+02  2.2444951976E+02  2.5979194977E+02  4.8000000000E+00 0. 9.
      11    1   11    0    0    0  3.3137075971E+01 -5.4120552515E+01  4.5162578390E+01  7.7889399122E+01  5.1000000000E-04 0. 9.
     -12    1   11    0    0    0  7.7430048895E+01 -1.1270193535E+02 -2.4047305872E+01  1.3883591618E+02  0.0000000000E+00 0. 9.
      -1    1   14    0    0  105  8.1061601990E+01 -1.1057110797E+02 -2.0319605697E+02  2.4512384564E+02  3.3000000000E-01 0. 9.
       2    1   14    0  105    0  9.4011697247E+01 -1.4191261268E+02 -1.2200083740E+02  2.0943185546E+02  3.3000000000E-01 0. 9.
</event>
<event>
    12   230  1.000000E+00  3.026812E+02  7.869244E-03  1.072305E-01
      -2   -1    0    0    0  101  0.0000000000E+00  0.0000000000E+00  5.2092172127E+01  5.2092172127E+01  0.0000000000E+00 0. 9.
       1   -1    0    0  101    0  0.0000000000E+00  0.0000000000E+00 -1.7593047219E+03  1.7593047219E+03  0.0000000000E+00 0. 9.
-1000024    2    1    2    0    0  1.3150033713E+02  4.4518340485E+01 -8.7020335893E+02  9.2136210637E+02  2.6903535800E+02 0. 9.
 1000023    2    1    2    0    0 -1.3150033713E+02 -4.4518340485E+01 -8.3700919083E+02  8.9003478765E+02  2.6889276000E+02 0. 9.
 1000022    1    3    0    0    0  1.2199684255E+01 -3.2712221659E+01 -3.0361733254E+02  3.3171296763E+02  1.2896157000E+02 0. 9.
     -24    2    3    0    0    0  1.1930065287E+02  7.7230562144E+01 -5.6658602639E+02  5.8964913874E+02  8.0431188000E+01 0. 9.
 1000022    1    4    0    0    0 -2.1320859534E+01 -2.4551217711E+01 -3.4891227068E+02  3.7340085767E+02  1.2896157000E+02 0. 9.
      25    2    4    0    0    0 -1.1017947759E+02 -1.9967122774E+01 -4.8809692015E+02  5.1663392998E+02  1.2701893900E+02 0. 9.
      11    1    6    0    0    0  6.9269319167E+01  3.7900464086E+00 -3.2284972439E+02  3.3021893884E+02  5.1000000000E-04 0. 9.
     -12    1    6    0    0    0  5.0031333707E+01  7.3440515735E+01 -2.4373630200E+02  2.5943019989E+02  0.0000000000E+00 0. 9.
       5    1    8    0  102    0 -5.3213350450E+01  4.7247774846E+01 -3.0710206305E+02  3.1527564134E+02  4.8000000000E+00 0. 9.
      -5    1    8    0    0  102 -5.6966127145E+01 -6.7214897620E+01 -1.8099485710E+02  2.0135828864E+02  4.8000000000E+00 0. 9.
</event>
<event>
    20   258  1.000000E+00  9.672223E+02  7.974195E-03  9.308166E-02
       2   -1    0    0  101    0  0.0000000000E+00  0.0000000000E+00  1.9210870260E+03  1.9210870260E+03  0.0000000000E+00 0. 9.
      21   -1    0    0  102  101  0.0000000000E+00  0.0000000000E+00 -5.7679935387E+02  5.7679935387E+02  0.0000000000E+00 0. 9.
 1000002    2    1    2  103    0 -6.6964032776E+01  2.5563551042E+02  1.2050387151E+03  1.5827308000E+03  9.9150632100E+02 0. 9.
 1000021    2    1    2  102  103  6.6964032776E+01 -2.5563551042E+02  1.3924895709E+02  9.1515557989E+02  8.6503512500E+02 0. 9.
 1000021    2    3    0  103  104 -3.1794303236E+01  2.6143114132E+02  1.2387491702E+03  1.5336695842E+03  8.6503512500E+02 0. 9.
       2    1    3    0  104    0 -3.5169729541E+01 -5.7956309031E+00 -3.3710455106E+01  4.9061215813E+01  3.3000000000E-01 0. 9.
 1000023    2    4    0    0    0  1.7479939091E+02 -1.1182848462E+02 -5.8481191495E+01  3.4465026211E+02  2.6889276000E+02 0. 9.
       2    1    4    0  102    0  7.2927307882E+01 -1.9204970812E+02  2.9512428294E+02  3.5958300002E+02  3.3000000000E-01 0. 9.
      -2    1    4    0    0  103 -1.8076266602E+02  4.8242682319E+01 -9.7394134354E+01  2.1092231776E+02  3.3000000000E-01 0. 9.
 1000024    2    5    0    0    0 -2.4362453702E+02  2.9893648605E+02  3.5660576125E+02  5.9013865366E+02  2.6903535800E+02 0. 9.
      -4    1    5    0    0  104  1.2171669332E+02 -4.4504298042E+01  1.2187431462E+02  1.7790779786E+02  1.5000000000E+00 0. 9.
       3    1    5    0  103    0  9.0113540462E+01  6.9989533109E+00  7.6026909430E+02  7.6562313266E+02  5.0000000000E-01 0. 9.
 1000022    1    7    0    0    0  1.1695799679E+02 -1.1636808964E+02 -9.5836359014E+01  2.3029632986E+02  1.2896157000E+02 0. 9.
      23    2    7    0    0    0  5.7841394120E+01  4.5396050258E+00  3.7355167519E+01  1.1435393225E+02  9.1187600000E+01 0. 9.
 1000022    1   10    0    0    0 -1.5692089917E+02  9.9014368365E+01  2.4209501483E+02  3.3116324748E+02  1.2896157000E+02 0. 9.
      24    2   10    0    0    0 -8.6703637844E+01  1.9992211768E+02  1.1451074642E+02  2.5897540618E+02  8.0431188000E+01 0. 9.
       4    1   14    0  105    0  6.9718862530E+01  2.1526287143E+01  1.6015123344E+00  7.2999422411E+01  1.5000000000E+00 0. 9.
      -4    1   14    0    0  105 -1.1877468410E+01 -1.6986682117E+01  3.5753655185E+01  4.1354509842E+01  1.5000000000E+00 0. 9.
      -3    1   16    0    0  106 -2.2221779950E+01  2.7002449384E+00  2.3293459438E+01  3.2309968732E+01  5.0000000000E-01 0. 9.
       4    1   16    0  106    0 -6.4481857894E+01  1.9722187275E+02  9.1217286983E+01  2.2666543744E+02  1.5000000000E+00 0. 9.
</event>
<event>
    17   254  1.000000E+00  7.362406E+02  7.949294E-03  9.605871E-02
      21   -1    0    0  101  102  0.0000000000E+00  0.0000000000E+00  6.7350266900E+02  6.7350266900E+02  0.0000000000E+00 0. 9.
       2   -1    0    0  102    0  0.0000000000E+00  0.0000000000E+00 -6.7592094013E+02  6.7592094013E+02  0.0000000000E+00 0. 9.
 1000024    2    1    2    0    0  1.0563126209E+02 -1.9154215812E+01 -1.6928130765E+02  3.3550116615E+02  2.6903535800E+02 0. 9.
 1000001    2    1    2  101    0 -1.0563126209E+02  1.9154215812E+01  1.6686303652E+02  1.0139224430E+03  9.9431916400E+02 0. 9.
 1000022    1    3    0    0    0  4.9047139517E+01  3.5775636075E+01 -1.3378021311E+01  1.4316276060E+02  1.2896157000E+02 0. 9.
      24    2    3    0    0    0  5.6584122577E+01 -5.4929851887E+01 -1.5590328634E+02  1.9233840555E+02  8.0431188000E+01 0. 9.
 1000021    2    4    0  101  103 -1.9960055454E+02  5.2220177762E+01  1.9495858773E+02  9.1041855580E+02  8.6503512500E+02 0. 9.
       1    1    4    0  103    0  9.3969292445E+01 -3.3065961950E+01 -2.8095551206E+01  1.0350388717E+02  3.3000000000E-01 0. 9.
      -1    1    6    0    0  104  1.8098819353E+01 -6.2294241958E+01 -1.3022841785E+02  1.4549120097E+02  3.3000000000E-01 0. 9.
       2    1    6    0  104    0  3.8485303224E+01  7.3643900704E+00 -2.5674868482E+01  4.6847204579E+01  3.3000000000E-01 0. 9.
 1000023    2    7    0    0    0 -1.8981597245E+02 -3.6528435133E-01  3.4826481872E+02  4.7918883248E+02  2.6889276000E+02 0. 9.
       2    1    7    0  101    0  6.2840778961E+01  2.1431203779E+01 -2.7677980773E+02  2.8463209739E+02  3.3000000000E-01 0. 9.
      -2    1    7    0    0  103 -7.2625361048E+01  3.1154258335E+01  1.2347357673E+02  1.4659762594E+02  3.3000000000E-01 0. 9.
 1000022    1   11    0    0    0 -1.2964586548E+02  9.0607188653E+00  2.3813666710E+02  3.0038359778E+02  1.2896157000E+02 0. 9.
      25    2   11    0    0    0 -6.0170106971E+01 -9.4260032167E+00  1.1012815162E+02  1.7880523469E+02  1.2701893900E+02 0. 9.
       5    1   15    0  105    0 -1.1549840680E+01 -6.2548575271E+01  2.8553789528E+01  6.9886207399E+01  4.8000000000E+00 0. 9.
      -5    1   15    0    0  105 -4.8620266291E+01  5.3122572054E+01  8.1574362095E+01  1.0891902730E+02  4.8000000000E+00 0. 9.
</event>
<event>
    12   230  1.000000E+00  2.921509E+02  7.866088E-03  1.077296E-01
       2   -1    0    0  101    0  0.0000000000E+00  0.0000000000E+00  1.1331724085E+03  1.1331724085E+03  0.0000000000E+00 0. 9.
      -1   -1    0    0    0  101  0.0000000000E+00  0.0000000000E+00 -1.1302319963E+02  1.1302319963E+02  0.0000000000E+00 0. 9.
 1000024    2    1    2    0    0  1.1344211470E+02  1.1889620659E+01  1.5027454845E+02  3.2859236180E+02  2.6903535800E+02 0. 9.
 1000023    2    1    2    0    0 -1.1344211470E+02 -1.1889620659E+01  8.6987466040E+02  9.1760324632E+02  2.6889276000E+02 0. 9.
 1000022    1    3    0    0    0  6.7197881687E+00  1.7356049642E+01  1.4471190777E+02  1.9472804317E+02  1.2896157000E+02 0. 9.
      24    2    3    0    0    0  1.0672232654E+02 -5.4664289830E+00  5.5626406839E+00  1.3386431863E+02  8.0431188000E+01 0. 9.
 1000022    1    4    0    0    0 -4.2188278851E+01 -3.0367540747E+01  5.1787767417E+02  5.3621862178E+02  1.2896157000E+02 0. 9.
      25    2    4    0    0    0 -7.1253835853E+01  1.8477920088E+01  3.5199698623E+02  3.8138462454E+02  1.2701893900E+02 0. 9.
     -11    1    6    0    0    0  9.7052444631E+01  4.8488355000E+00 -2.4871721723E+01  1.0030598565E+02  5.1000000000E-04 0. 9.
      12    1    6    0    0    0  9.6698819041E+00 -1.0315264483E+01  3.0434362406E+01  3.3558332981E+01  0.0000000000E+00 0. 9.
       5    1    8    0  102    0 -2.3353287532E+01 -5.4258173334E+01  1.5486570763E+02  1.6581843327E+02  4.8000000000E+00 0. 9.
      -5    1    8    0    0  102 -4.7900548321E+01  7.2736093422E+01  1.9713127860E+02  2.1556619127E+02  4.8000000000E+00 0. 9.
</event>
<event>
    12   230  1.000000E+00  2.896841E+02  7.865333E-03  1.078498E-01
      -1   -1    0    0    0  101  0.0000000000E+00  0.0000000000E+00  3.9988829303E+02  3.9988829303E+02  0.0000000000E+00 0. 9.
       2   -1    0    0  101    0  0.0000000000E+00  0.0000000000E+00 -2.3420539048E+02  2.3420539048E+02  0.0000000000E+00 0. 9.
 1000023    2    1    2    0    0  1.2030968256E+01  1.0691321832E+02  1.8506337448E+02  3.4369601308E+02  2.6889276000E+02 0. 9.
 1000024    2    1    2    0    0 -1.2030968256E+01 -1.0691321832E+02 -1.9380471936E+01  2.9039767044E+02  2.6903535800E+02 0. 9.
 1000022    1    3    0    0    0 -1.5173907067E+01  1.9563712568E+01  1.0338950826E+02  1.6713307052E+02  1.2896157000E+02 0. 9.
      25    2    3    0    0    0  2.7204875323E+01  8.7349505752E+01  8.1673866219E+01  1.7656294256E+02  1.2701893900E+02 0. 9.
 1000022    1    4    0    0    0 -4.5120650016E+01  9.9045885594E+00 -4.1398369628E+01  1.4310445652E+02  1.2896157000E+02 0. 9.
      24    2    4    0    0    0  3.3089681760E+01 -1.1681780688E+02  2.2017897691E+01  1.4729321391E+02  8.0431188000E+01 0. 9.
       5    1    6    0  102    0 -5.2549211272E+00  9.0115162720E+01  1.0322318504E+02  1.3720941177E+02  4.8000000000E+00 0. 9.
      -5    1    6    0    0  102  3.2459796450E+01 -2.7656569675E+00 -2.1549318819E+01  3.9353530790E+01  4.8000000000E+00 0. 9.
     -11    1    8    0    0    0 -1.1095291993E+01 -6.3398355075E+01  3.9864988657E+01  7.5707821601E+01  5.1000000000E-04 0. 9.
      12    1    8    0    0    0  4.4184973753E+01 -5.3419451804E+01 -1.7847090966E+01  7.1585392312E+01  0.0000000000E+00 0. 9.
</event>
<event>
    12   230  1.000000E+00  3.228570E+02  7.875001E-03  1.063327E-01
      -1   -1    0    0    0  101  0.0000000000E+00  0.0000000000E+00  5.3521939198E+01  5.3521939198E+01  0.0000000000E+00 0. 9.
       2   -1    0    0  101    0  0.0000000000E+00  0.0000000000E+00 -1.9525417785E+03  1.9525417785E+03  0.0000000000E+00 0. 9.
 1000023    2    1    2    0    0  1.3416419607E+02  1.1787668073E+02 -8.9861595114E+02  9.5483448168E+02  2.6889276000E+02 0. 9.
 1000024    2    1    2    0    0 -1.3416419607E+02 -1.1787668073E+02 -1.0004038881E+03  1.0512292360E+03  2.6903535800E+02 0. 9.
 1000022    1    3    0    0    0  5.9273262003E+01  1.4467524765E+01 -3.9059875220E+02  4.1583782971E+02  1.2896157000E+02 0. 9.
      25    2    3    0    0    0  7.4890934068E+01  1.0340915596E+02 -5.0801719895E+02  5.3899665197E+02  1.2701893900E+02 0. 9.
 1000022    1    4    0    0    0 -6.0045194533E+01 -1.1798866891E+01 -6.9986816650E+02  7.1427668005E+02  1.2896157000E+02 0. 9.
      24    2    4    0    0    0 -7.4119001538E+01 -1.0607781384E+02 -3.0053572161E+02  3.3695255593E+02  8.0431188000E+01 0. 9.
       5    1    6    0  102    0 -3.2251573805E+01  1.0542581749E+01 -6.0508626005E+01  6.9538793949E+01  4.8000000000E+00 0. 9.
      -5    1    6    0    0  102  1.0714250787E+02  9.2866574213E+01 -4.4750857294E+02  4.6945785802E+02  4.8000000000E+00 0. 9.
      -1    1    8    0    0  103 -8.0353963189E+01 -4.7625462580E+01 -1.7656310441E+02  1.9974879931E+02  3.3000000000E-01 0. 9.
       2    1    8    0  103    0  6.2349616512E+00 -5.8452351255E+01 -1.2397261721E+02  1.3720375662E+02  3.3000000000E-01 0. 9.
</event>
<event>
    10   246  1.000000E+00  7.107228E+02  7.946086E-03  9.645751E-02
      21   -1    0    0  101  102  0.0000000000E+00  0.0000000000E+00  2.3443282128E+02  2.3443282128E+02  0.0000000000E+00 0. 9.
       2   -1    0    0  102    0  0.0000000000E+00  0.0000000000E+00 -1.3911215168E+03  1.3911215168E+03  0.0000000000E+00 0. 9.
 1000022    1    1    2    0    0 -2.4994246416E+01  6.8148263851E+01 -1.4967029037E+02  2.1047845632E+02  1.2896157000E+02 0. 9.
 1000002    2    1    2  101    0  2.4994246416E+01 -6.8148263851E+01 -1.0070184051E+03  1.4150758817E+03  9.9150632100E+02 0. 9.
 1000024    2    4    0    0    0 -2.0432436572E+02 -1.1424045181E+02 -1.1052657608E+03  1.1613749408E+03  2.6903535800E+02 0. 9.
       1    1    4    0  101    0  2.2931861214E+02  4.6092187960E+01  9.8247355627E+01  2.5370094098E+02  3.3000000000E-01 0. 9.
 1000022    1    5    0    0    0 -1.5469442841E+02 -1.5307531492E+02 -8.3313568983E+02  8.7069431055E+02  1.2896157000E+02 0. 9.
      24    2    5    0    0    0 -4.9629937316E+01  3.8834863111E+01 -2.7213007094E+02  2.9068063022E+02  8.0431188000E+01 0. 9.
      -1    1    8    0    0  103 -1.1025333913E+01 -5.4296052704E+00 -1.0186750412E-02  1.2294210225E+01  3.3000000000E-01 0. 9.
       2    1    8    0  103    0 -3.8604603403E+01  4.4264468381E+01 -2.7211988419E+02  2.7838642000E+02  3.3000000000E-01 0. 9.
</event>
<event>
    12   226  1.000000E+00  2.866023E+02  7.864381E-03  1.080019E-01
       2   -1    0    0  101    0  0.0000000000E+00  0.0000000000E+00  8.2043125349E+02  8.2043125349E+02  0.0000000000E+00 0. 9.
      -2   -1    0    0    0  101  0.0000000000E+00  0.0000000000E+00 -1.0588334677E+02  1.0588334677E+02  0.0000000000E+00 0. 9.
 1000024    2    1    2    0    0 -2.0306898557E+01  9.6687619930E+01  4.6533859530E+02  5.4651706113E+02  2.6903535800E+02 0. 9.
-1000024    2    1    2    0    0  2.0306898557E+01 -9.6687619930E+01  2.4920931142E+02  3.7979753913E+02  2.6903535800E+02 0. 9.
 1000022    1    3    0    0    0 -1.0181275614E+01 -2.5526773689E+01  1.5661856271E+02  2.0473332721E+02  1.2896157000E+02 0. 9.
      24    2    3    0    0    0 -1.0125622943E+01  1.2221439362E+02  3.0872003259E+02  3.4178373392E+02  8.0431188000E+01 0. 9.
 1000022    1    4    0    0    0  2.5429361588E+01 -1.3414537458E+02  2.1261143493E+02  2.8368352570E+02  1.2896157000E+02 0. 9.
     -24    2    4    0    0    0 -5.1224630314E+00  3.7457754654E+01  3.6597876491E+01  9.6114013432E+01  8.0431188000E+01 0. 9.
      -3    1    6    0    0  102  1.2605307218E+01  6.5341299579E+01  7.5460862874E+01  1.0061297643E+02  5.0000000000E-01 0. 9.
       4    1    6    0  102    0 -2.2730930161E+01  5.6873094040E+01  2.3325916971E+02  2.4117075749E+02  1.5000000000E+00 0. 9.
       1    1    8    0  103    0 -2.3816030599E+00 -1.8232990086E+01 -1.2156933055E+01  2.2045722531E+01  3.3000000000E-01 0. 9.
      -2    1    8    0    0  103 -2.7408599715E+00  5.5690744740E+01  4.8754809546E+01  7.4068290901E+01  3.3000000000E-01 0. 9.
</event>
<event>
    24   259  1.000000E+00  1.303441E+03  8.001600E-03  9.003105E-02
       2   -1    0    0  101    0  0.0000000000E+00  0.0000000000E+00  1.6253645370E+03  1.6253645370E+03  0.0000000000E+00 0. 9.
      21   -1    0    0  102  101  0.0000000000E+00  0.0000000000E+00 -1.0795642805E+03  1.0795642805E+03  0.0000000000E+00 0. 9.
 2000002    2    1    2  103    0  6.3548021397E+02 -6.5547115009E+02  5.2723436612E+02  1.4471100742E+03  9.9129912700E+02 0. 9.
 1000021    2    1    2  102  103 -6.3548021397E+02  6.5547115009E+02  1.8565890363E+01  1.2578187432E+03  8.6503512500E+02 0. 9.
 1000021    2    3    0  103  104  5.1524746313E+02 -6.9199235207E+02  4.8626863318E+02  1.3149434644E+03  8.6503512500E+02 0. 9.
       2    1    3    0  104    0  1.2023275084E+02  3.6521201981E+01  4.0965732942E+01  1.3216660979E+02  3.3000000000E-01 0. 9.
 1000024    2    4    0    0    0 -1.3956616594E+02  5.1551418111E+02  7.7956230258E+01  6.0306780986E+02  2.6903535800E+02 0. 9.
      -2    1    4    0    0  103 -3.8602975392E+02  7.3267791379E+01  1.4034162471E+02  4.1723257386E+02  3.3000000000E-01 0. 9.
       1    1    4    0  102    0 -1.0988429412E+02  6.6689177605E+01 -1.9973196460E+02  2.3751835947E+02  3.3000000000E-01 0. 9.
 1000024    2    5    0    0    0  8.6319239300E+00 -2.6266262191E+02  6.6032059444E+00  3.7615128504E+02  2.6903535800E+02 0. 9.
      -6    2    5    0    0  104  1.4546603087E+02 -3.3570256469E+02  1.2410294178E+02  4.2338677145E+02  1.7320000000E+02 0. 9.
       5    1    5    0  103    0  3.6114950834E+02 -9.3627165473E+01  3.5556248546E+02  5.1540540796E+02  4.8000000000E+00 0. 9.
 1000022    1    7    0    0    0 -1.6996023324E+02  4.0637631902E+02  6.4319374784E+01  4.6346117643E+02  1.2896157000E+02 0. 9.
      24    2    7    0    0    0  3.0394067304E+01  1.0913786209E+02  1.3636855474E+01  1.3960663343E+02  8.0431188000E+01 0. 9.
 1000022    1   10    0    0    0  5.9628317787E+01 -1.9160242278E+02 -5.1271859235E+01  2.4398138205E+02  1.2896157000E+02 0. 9.
      24    2   10    0    0    0 -5.0996393857E+01 -7.1060199121E+01  5.7875065180E+01  1.3216990300E+02  8.0431188000E+01 0. 9.
     -24    2   11    0    0    0  5.4073140647E+01 -9.9443605217E+01  9.5239816121E+01  1.6838270023E+02  8.0431188000E+01 0. 9.
      -5    1   11    0    0  104  9.1392890219E+01 -2.3625895948E+02  2.8863125656E+01  2.5500407122E+02  4.8000000000E+00 0. 9.
      -1    1   14    0    0  105  2.0338195011E+01  1.6323464216E+01  3.5181912725E+01  4.3794674828E+01  3.3000000000E-01 0. 9.
       2    1   14    0  105    0  1.0055872293E+01  9.2814397870E+01 -2.1545057252E+01  9.5811958604E+01  3.3000000000E-01 0. 9.
      -3    1   16    0    0  106 -3.6383185018E+01 -6.4720667119E+00 -9.0064874353E+00  3.8039329850E+01  5.0000000000E-01 0. 9.
       4    1   16    0  106    0 -1.4613208840E+01 -6.4588132409E+01  6.6881552615E+01  9.4130573147E+01  1.5000000000E+00 0. 9.
       3    1   17    0  107    0  1.1591492686E+01 -9.4085372661E+01  5.4963998668E+01  1.0957970250E+02  5.0000000000E-01 0. 9.
      -4    1   17    0    0  107  4.2481647962E+01 -5.3582325562E+00  4.0275817454E+01  5.8802997723E+01  1.5000000000E+00 0. 9.
</event>
<event>
    12   230  1.000000E+00  5.091714E+02  7.915886E-03  1.003983E-01
      -2   -1    0    0    0  101  0.0000000000E+00  0.0000000000E+00  9.8344678116E+02  9.8344678116E+02  0.0000000000E+00 0. 9.
       1   -1    0    0  101    0  0.0000000000E+00  0.0000000000E+00 -1.2637463174E+03  1.2637463174E+03  0.0000000000E+00 0. 9.
-1000024    2    1    2    0    0 -2.2001010811E+02 -3.7216853679E+02  8.5940613568E+02  9.9893583244E+02  2.6903535800E+02 0. 9.
 1000023    2    1    2    0    0  2.2001010811E+02  3.7216853679E+02 -1.1397056719E+03  1.2482572661E+03  2.6889276000E+02 0. 9.
 1000022    1    3    0    0    0 -2.2983522740E+02 -3.0653653002E+02  6.6162620646E+02  7.7535101702E+02  1.2896157000E+02 0. 9.
     -24    2    3    0    0    0  9.8251192890E+00 -6.5632006769E+01  1.9777992922E+02  2.2358481542E+02  8.0431188000E+01 0. 9.
 1000022    1    4    0    0    0  1.2772975267E+02  1.9389835892E+02 -6.9615661940E+02  7.4510173036E+02  1.2896157000E+02 0. 9.
      25    2    4    0    0    0  9.2280355435E+01  1.7827017787E+02 -4.4354905250E+02  5.0315553575E+02  1.2701893900E+02 0. 9.
      11    1    6    0    0    0  2.6664486843E+01 -7.4397616295E+01  1.8360648320E+02  1.9989332366E+02  5.1000000000E-04 0. 9.
     -12    1    6    0    0    0 -1.6839367554E+01  8.7656095257E+00  1.4173446020E+01  2.3691491765E+01  0.0000000000E+00 0. 9.
       5    1    8    0  102    0 -2.4205055867E+01  8.3908856467E+01 -1.5635656442E+02  1.7915634558E+02  4.8000000000E+00 0. 9.
      -5    1    8    0    0  102  1.1648541130E+02  9.4361321401E+01 -2.8719248808E+02  3.2399919017E+02  4.8000000000E+00 0. 9.
</event>
<event>
    12   230  1.000000E+00  3.409907E+02  7.879883E-03  1.055841E-01
       2   -1    0    0  101    0  0.0000000000E+00  0.0000000000E+00  2.2061536342E+02  2.2061536342E+02  0.0000000000E+00 0. 9.
      -1   -1    0    0    0  101  0.0000000000E+00  0.0000000000E+00 -5.3435807589E+02  5.3435807589E+02  0.0000000000E+00 0. 9.
 1000024    2    1    2    0    0  1.9203730764E+02  8.3992132787E+01 -2.0105139096E+02  3.9589732451E+02  2.6903535800E+02 0. 9.
 1000023    2    1    2    0    0 -1.9203730764E+02 -8.3992132787E+01 -1.1269132150E+02  3.5907611480E+02  2.6889276000E+02 0. 9.
 1000022    1    3    0    0    0  6.0574399329E+01 -1.3064510909E+01 -3.0316831964E+01  1.4625367051E+02  1.2896157000E+02 0. 9.
      24    2    3    0    0    0  1.3146290831E+02  9.7056643696E+01 -1.7073455900E+02  2.4964365401E+02  8.0431188000E+01 0. 9.
 1000022    1    4    0    0    0 -1.0912234886E+02 -4.3344883742E+00 -6.6733437519E+01  1.8168905589E+02  1.2896157000E+02 0. 9.
      25    2    4    0    0    0 -8.2914958778E+01 -7.9657644413E+01 -4.5957883980E+01  1.7738705891E+02  1.2701893900E+02 0. 9.
     -13    1    6    0    0    0  6.7892582692E+01  5.1848922015E+01 -3.3444344553E+01  9.1740115791E+01  1.0566000000E-01 0. 9.
      14    1    6    0    0    0  6.3570325617E+01  4.5207721681E+01 -1.3729021445E+02  1.5790353822E+02  0.0000000000E+00 0. 9.
       5    1    8    0  102    0  1.3485356052E+01 -6.0600159834E+01  1.1694128832E+01  6.3356348134E+01  4.8000000000E+00 0. 9.
      -5    1    8    0    0  102 -9.6400314830E+01 -1.9057484579E+01 -5.7652012812E+01  1.1403071077E+02  4.8000000000E+00 0. 9.
</event>
<event>
    18   244  1.000000E+00  1.079159E+03  7.984233E-03  9.193817E-02
      21   -1    0    0  101  102  0.0000000000E+00  0.0000000000E+00  7.2177274581E+02  7.2177274581E+02  0.0000000000E+00 0. 9.
      21   -1    0    0  102  103  0.0000000000E+00  0.0000000000E+00 -1.6135253177E+03  1.6135253177E+03  0.0000000000E+00 0. 9.
 1000021    2    1    2  104  103 -9.9419942866E+01 -6.3750536182E+02 -4.4162746450E+02  1.1660265847E+03  8.6503512500E+02 0. 9.
 1000021    2    1    2  101  104  9.9419942866E+01  6.3750536182E+02 -4.5012510743E+02  1.1692714788E+03  8.6503512500E+02 0. 9.
 1000023    2    3    0    0    0 -1.3967188298E+02 -8.1869222811E+02 -3.5219520659E+02  9.4133414853E+02  2.6889276000E+02 0. 9.
       3    1    3    0  104    0  5.4615809719E+01  1.6981265344E+02 -9.9006071582E+01  2.0401391166E+02  5.0000000000E-01 0. 9.
      -3    1    3    0    0  103 -1.4363869608E+01  1.1374212853E+01  9.5738136760E+00  2.0678524523E+01  5.0000000000E-01 0. 9.
 1000024    2    4    0    0    0  5.1515801674E+01  3.6855846966E+02 -8.2982691173E+01  4.6664266229E+02  2.6903535800E+02 0. 9.
      -4    1    4    0    0  104  5.9091714236E+01 -9.1044211519E+01  7.5310877720E+01  1.3211683256E+02  1.5000000000E+00 0. 9.
       3    1    4    0  101    0 -1.1187573044E+01  3.5999110368E+02 -4.4245329398E+02  5.7051198399E+02  5.0000000000E-01 0. 9.
 1000022    1    5    0    0    0 -3.2585352301E+01 -5.5788541213E+02 -1.9407785755E+02  6.0547108897E+02  1.2896157000E+02 0. 9.
      23    2    5    0    0    0 -1.0708653068E+02 -2.6080681598E+02 -1.5811734905E+02  3.3586305956E+02  9.1187600000E+01 0. 9.
 1000022    1    8    0    0    0 -1.1170066919E+01  2.4341970641E+02  1.7913516376E+01  2.7627867176E+02  1.2896157000E+02 0. 9.
      24    2    8    0    0    0  6.2685868593E+01  1.2513876324E+02 -1.0089620755E+02  1.9036399052E+02  8.0431188000E+01 0. 9.
      14    1   12    0    0    0 -1.0996301103E+02 -2.6213894365E+02 -1.6471611974E+02  3.2854237121E+02  0.0000000000E+00 0. 9.
     -14    1   12    0    0    0  2.8764803542E+00  1.3321276721E+00  6.5987706927E+00  7.3206883568E+00  0.0000000000E+00 0. 9.
      -3    1   14    0    0  105  3.6854750931E+01  1.1318560328E+01 -4.1905781176E+00  3.8783932485E+01  5.0000000000E-01 0. 9.
       4    1   14    0  105    0  2.5831117662E+01  1.1382020291E+02 -9.6705629431E+01  1.5158005804E+02  1.5000000000E+00 0. 9.
</event>
<event>
    17   258  1.000000E+00  9.551134E+02  7.973042E-03  9.321504E-02
       2   -1    0    0  101    0  0.0000000000E+00  0.0000000000E+00  7.3344240510E+02  7.3344240510E+02  0.0000000000E+00 0. 9.
      21   -1    0    0  102  101  0.0000000000E+00  0.0000000000E+00 -1.3145052728E+03  1.3145052728E+03  0.0000000000E+00 0. 9.
 1000002    2    1    2  103    0  1.3962922930E+02  1.6449906882E+02 -5.5378219728E+02  1.1559912508E+03  9.9150632100E+02 0. 9.
 1000021    2    1    2  102  103 -1.3962922930E+02 -1.6449906882E+02 -2.7280670383E+01  8.9195642706E+02  8.6503512500E+02 0. 9.
 1000023    2    3    0    0    0 -2.2424685855E+01  4.6321333917E+02 -6.0940068973E+02  8.1162921408E+02  2.6889276000E+02 0. 9.
       2    1    3    0  103    0  1.6205391516E+02 -2.9871427035E+02  5.5618492456E+01  3.4436203672E+02  3.3000000000E-01 0. 9.
 1000024    2    4    0    0    0  1.0404840367E+02 -1.7993228752E+02  8.1503108244E+01  3.4960617687E+02  2.6903535800E+02 0. 9.
      -2    1    4    0    0  103 -2.2862357717E+02  4.5228257493E+01  1.5277746344E+02  2.7866718061E+02  3.3000000000E-01 0. 9.
       1    1    4    0  102    0 -1.5054055802E+01 -2.9795038797E+01 -2.6156124207E+02  2.6368306958E+02  3.3000000000E-01 0. 9.
 1000022    1    5    0    0    0 -2.6110264717E+01  2.2516890840E+02 -2.4195933101E+02  3.5575017587E+02  1.2896157000E+02 0. 9.
      25    2    5    0    0    0  3.6855788621E+00  2.3804443077E+02 -3.6744135872E+02  4.5587903821E+02  1.2701893900E+02 0. 9.
 1000022    1    7    0    0    0  2.5188101525E+00 -5.9088399713E+01  9.6873800067E+01  1.7179465376E+02  1.2896157000E+02 0. 9.
      24    2    7    0    0    0  1.0152959351E+02 -1.2084388781E+02 -1.5370691823E+01  1.7781152311E+02  8.0431188000E+01 0. 9.
       5    1   11    0  104    0 -4.2800750033E+01  1.3705014550E+02 -2.7869566296E+02  3.1354259541E+02  4.8000000000E+00 0. 9.
      -5    1   11    0    0  104  4.6486328895E+01  1.0099428527E+02 -8.8745695765E+01  1.4233644280E+02  4.8000000000E+00 0. 9.
      -1    1   13    0    0  105  1.1311718232E+02 -1.1861683825E+02 -1.9842970092E+01  1.6510391762E+02  3.3000000000E-01 0. 9.
       4    1   13    0  105    0 -1.1587588811E+01 -2.2270495595E+00  4.4722782693E+00  1.2707605483E+01  1.5000000000E+00 0. 9.
</event>
<event>
    12   230  1.000000E+00  3.195562E+02  7.874084E-03  1.064747E-01
      -3   -1    0    0    0  101  0.0000000000E+00  0.0000000000E+00  1.6641206612E+02  1.6641206612E+02  0.0000000000E+00 0. 9.
       2   -1    0    0  101    0  0.0000000000E+00  0.0000000000E+00 -7.2451302620E+02  7.2451302620E+02  0.0000000000E+00 0. 9.
 1000023    2    1    2    0    0  1.6927378807E+02 -3.3479827817E+01 -1.0474041699E+02  3.3622668771E+02  2.6889276000E+02 0. 9.
 1000024    2    1    2    0    0 -1.6927378807E+02  3.3479827817E+01 -4.5336054308E+02  5.5469840461E+02  2.6903535800E+02 0. 9.
 1000022    1    3    0    0    0  6.9189275382E+01 -3.3326577979E+01  2.0866611489E+01  1.5153982526E+02  1.2896157000E+02 0. 9.
      23    2    3    0    0    0  1.0008451269E+02 -1.5324983750E-01 -1.2560702848E+02  1.8468686245E+02  9.1187600000E+01 0. 9.
 1000022    1    4    0    0    0 -2.6006330680E+01  5.1191512860E+01 -1.3165299592E+02  1.9302978552E+02  1.2896157000E+02 0. 9.
      24    2    4    0    0    0 -1.4326745739E+02 -1.7711685043E+01 -3.2170754716E+02  3.6166861909E+02  8.0431188000E+01 0. 9.
       4    1    6    0  102    0  1.0827460623E+02 -7.3624780598E+00 -1.3281694807E+02  1.7152314169E+02  1.5000000000E+00 0. 9.
      -4    1    6    0    0  102 -8.1900935487E+00  7.2092282223E+00  7.2099195921E+00  1.3163720767E+01  1.5000000000E+00 0. 9.
      -3    1    8    0    0  103 -3.2321858402E+01 -3.0665828457E+01 -4.5299468969E+01  6.3540439520E+01  5.0000000000E-01 0. 9.
       4    1    8    0  103    0 -1.1094559899E+02  1.2954143414E+01 -2.7640807819E+02  2.9812817957E+02  1.5000000000E+00 0. 9.
</event>
<event>
    12   230  1.000000E+00  2.778121E+02  7.861608E-03  1.084470E-01
      -2   -1    0    0    0  101  0.0000000000E+00  0.0000000000E+00  3.8439265050E+02  3.8439265050E+02  0.0000000000E+00 0. 9.
       1   -1    0    0  101    0  0.0000000000E+00  0.0000000000E+00 -2.0125300298E+02  2.0125300298E+02  0.0000000000E+00 0. 9.
-1000024    2    1    2    0    0  3.5631255252E+01  5.9735129386E+01  7.7442714283E+01  2.8847057022E+02  2.6903535800E+02 0. 9.
 1000023    2    1    2    0    0 -3.5631255252E+01 -5.9735129386E+01  1.0569693323E+02  2.9717508326E+02  2.6889276000E+02 0. 9.
 1000022    1    3    0    0    0 -1.9692091548E+01 -4.1478500838E+01  4.5634281382E+01  1.4429767384E+02  1.2896157000E+02 0. 9.
     -24    2    3    0    0    0  5.5323346800E+01  1.0121363022E+02  3.1808432901E+01  1.4417289638E+02  8.0431188000E+01 0. 9.
 1000022    1    4    0    0    0 -7.9874647319E+00 -6.3716221428E+01  3.1581827773E+01  1.4748577846E+02  1.2896157000E+02 0. 9.
      25    2    4    0    0    0 -2.7643790520E+01  3.9810920427E+00  7.4115105462E+01  1.4968930480E+02  1.2701893900E+02 0. 9.
      13    1    6    0    0    0  5.5509008679E+01  8.6675971226E+01 -6.5663254085E+00  1.0313632641E+02  1.0566000000E-01 0. 9.
     -14    1    6    0    0    0 -1.8566187937E-01  1.4537658998E+01  3.8374758309E+01  4.1036569969E+01  0.0000000000E+00 0. 9.
      21    1    8    0  102  103  3.8261991760E+01 -1.0314286772E+01  7.2038885881E+01  8.2219009992E+01  0.0000000000E+00 0. 9.
      21    1    8    0  103  102 -6.5905782279E+01  1.4295378815E+01  2.0762195807E+00  6.7470294805E+01  0.0000000000E+00 0. 9.
</event>
<event>
    13   259  1.000000E+00  9.869105E+02  7.976040E-03  9.286911E-02
       2   -1    0    0  101    0  0.0000000000E+00  0.0000000000E+00  7.6066091933E+02  7.6066091933E+02  0.0000000000E+00 0. 9.
      21   -1    0    0  102  101  0.0000000000E+00  0.0000000000E+00 -1.6499243565E+03  1.6499243565E+03  0.0000000000E+00 0. 9.
 2000002    2    1    2  103    0  1.1935676043E+02  3.0702842711E+02  1.0773859113E+02  1.0501400166E+03  9.9129912700E+02 0. 9.
 1000021    2    1    2  102  103 -1.1935676043E+02 -3.0702842711E+02 -9.9700202826E+02  1.3604452591E+03  8.6503512500E+02 0. 9.
 1000022    1    3    0    0    0 -3.7536415199E+02  1.0850916077E+02 -1.7453373067E+02  4.4695144507E+02  1.2896157000E+02 0. 9.
       2    1    3    0  103    0  4.9472091243E+02  1.9851926634E+02  2.8227232180E+02  6.0318857156E+02  3.3000000000E-01 0. 9.
 1000024    2    4    0    0    0 -1.4369231562E+02 -5.2996552280E+02 -4.3042146727E+02  7.4776573890E+02  2.6903535800E+02 0. 9.
      -2    1    4    0    0  103  2.9539357903E+01  5.2132637711E+01 -1.1164687507E+02  1.2671037524E+02  3.3000000000E-01 0. 9.
       1    1    4    0  102    0 -5.2038027143E+00  1.7080445798E+02 -4.5493368591E+02  4.8596914502E+02  3.3000000000E-01 0. 9.
 1000022    1    7    0    0    0 -4.5985709650E+01 -4.0800849760E+02 -3.4888736762E+02  5.5402084928E+02  1.2896157000E+02 0. 9.
      24    2    7    0    0    0 -9.7706605973E+01 -1.2195702519E+02 -8.1534099649E+01  1.9374488962E+02  8.0431188000E+01 0. 9.
      -3    1   11    0    0  104 -8.9504061702E+01 -5.9321739615E+01 -7.3324140575E+01  1.3002586452E+02  5.0000000000E-01 0. 9.
       4    1   11    0  104    0 -8.2025442707E+00 -6.2635285578E+01 -8.2099590737E+00  6.3719025102E+01  1.5000000000E+00 0. 9.
</event>
<event>
    22   273  1.000000E+00  1.347139E+03  8.004641E-03  8.970609E-02
       2   -1    0    0  101    0  0.0000000000E+00  0.0000000000E+00  1.2813347133E+03  1.2813347133E+03  0.0000000000E+00 0. 9.
       4   -1    0    0  102    0  0.0000000000E+00  0.0000000000E+00 -1.4340770660E+03  1.4340770660E+03  0.0000000000E+00 0. 9.
 1000002    2    1    2  102    0 -4.1265625785E+01 -9.1115398683E+02  7.4691190375E+01  1.3492842540E+03  9.9150632100E+02 0. 9.
 2000004    2    1    2  101    0  4.1265625785E+01  9.1115398683E+02 -2.2743354308E+02  1.3661275253E+03  9.9129912700E+02 0. 9.
 1000021    2    3    0  102  103  6.4140650814E+01 -7.1825070622E+02  8.3606603232E+01  1.1292802715E+03  8.6503512500E+02 0. 9.
       2    1    3    0  103    0 -1.0540627660E+02 -1.9290328062E+02 -8.9154128573E+00  2.2000398248E+02  3.3000000000E-01 0. 9.
 1000021    2    4    0  101  104  9.6269761828E+01  7.1149126654E+02 -1.1386945518E+02  1.1299290729E+03  8.6503512500E+02 0. 9.
       4    1    4    0  104    0 -5.5004136042E+01  1.9966272029E+02 -1.1356408790E+02  2.3619845240E+02  1.5000000000E+00 0. 9.
-1000024    2    5    0    0    0 -2.6550457816E+02 -2.2547293682E+02 -6.6848626621E+01  4.4517354930E+02  2.6903535800E+02 0. 9.
       2    1    5    0  102    0  3.2116349221E+02 -3.7350257240E+02  8.6358827362E-01  4.9259619874E+02  3.3000000000E-01 0. 9.
      -1    1    5    0    0  103  8.4817367626E+00 -1.1927519699E+02  1.4959164158E+02  1.9151052348E+02  3.3000000000E-01 0. 9.
 1000023    2    7    0    0    0  4.6794367654E+01  1.5275366457E+02 -2.7091300488E+02  4.1378807073E+02  2.6889276000E+02 0. 9.
       4    1    7    0  101    0 -9.1133506263E+01  2.3758127069E+02  2.4653818453E+02  3.5430707384E+02  1.5000000000E+00 0. 9.
      -4    1    7    0    0  104  1.4060890044E+02  3.2115633128E+02 -8.9494634822E+01  3.6183392829E+02  1.5000000000E+00 0. 9.
 1000022    1    9    0    0    0 -1.3067907205E+02 -1.5275567573E+02 -1.1571092205E+02  2.6538918659E+02  1.2896157000E+02 0. 9.
     -24    2    9    0    0    0 -1.3482550611E+02 -7.2717261092E+01  4.8862295430E+01  1.7978436271E+02  8.0431188000E+01 0. 9.
 1000022    1   12    0    0    0  5.3981789300E+01  1.1195717023E+02 -1.5109094175E+02  2.3432456286E+02  1.2896157000E+02 0. 9.
      25    2   12    0    0    0 -7.1874216462E+00  4.0796494340E+01 -1.1982206313E+02  1.7946350787E+02  1.2701893900E+02 0. 9.
       1    1   16    0  105    0 -6.8434281397E+01 -6.2408312328E+01  6.1804267689E+01  1.1134596860E+02  3.3000000000E-01 0. 9.
      -4    1   16    0    0  105 -6.6391224711E+01 -1.0308948764E+01 -1.2941972259E+01  6.8438394116E+01  1.5000000000E+00 0. 9.
       5    1   18    0  106    0 -3.1239974729E+01 -2.5978515660E+01 -9.4048586447E-01  4.0923633888E+01  4.8000000000E+00 0. 9.
      -5    1   18    0    0  106  2.4052553082E+01  6.6775010000E+01 -1.1888157727E+02  1.3853987399E+02  4.8000000000E+00 0. 9.
</event>
<event>
    12   230  1.000000E+00  2.868636E+02  7.864462E-03  1.079889E-01
      -1   -1    0    0    0  101  0.0000000000E+00  0.0000000000E+00  3.1170200369E+02  3.1170200369E+02  0.0000000000E+00 0. 9.
       2   -1    0    0  101    0  0.0000000000E+00  0.0000000000E+00 -2.6420691548E+02  2.6420691548E+02  0.0000000000E+00 0. 9.
 1000023    2    1    2    0    0 -9.4676753053E+01 -3.1390238044E+01  3.1714275257E+01  2.8854487736E+02  2.6889276000E+02 0. 9.
 1000024    2    1    2    0    0  9.4676753053E+01  3.1390238044E+01  1.5780812958E+01  2.8736404181E+02  2.6903535800E+02 0. 9.
 1000022    1    3    0    0    0 -4.8566120230E+00 -8.0588147620E+00  9.1632669957E+00  1.2962863563E+02  1.2896157000E+02 0. 9.
      25    2    3    0    0    0 -8.9820141030E+01 -2.3331423282E+01  2.2551008261E+01  1.5891624173E+02  1.2701893900E+02 0. 9.
 1000022    1    4    0    0    0  8.8273342759E+01  1.3960407906E+00  8.4091088647E+01  1.7747261676E+02  1.2896157000E+02 0. 9.
      24    2    4    0    0    0  6.4034102938E+00  2.9994197254E+01 -6.8310275689E+01  1.0989142505E+02  8.0431188000E+01 0. 9.
      22    1    6    0    0    0 -3.0013023726E+01  5.2651852377E+01  9.3397628310E+00  6.1320716904E+01  0.0000000000E+00 0. 9.
      22    1    6    0    0    0 -5.9807117304E+01 -7.5983275659E+01  1.3211245430E+01  9.7595524825E+01  0.0000000000E+00 0. 9.
      -1    1    8    0    0  102 -3.3523220849E+01 -3.8268919811E+00 -2.5930026113E+01  4.2554983169E+01  3.3000000000E-01 0. 9.
       2    1    8    0  102    0  3.9926631142E+01  3.3821089235E+01 -4.2380249576E+01  6.7336441883E+01  3.3000000000E-01 0. 9.
</event>
<event>
    15   272  1.000000E+00  1.143392E+03  7.989543E-03  9.134569E-02
       2   -1    0    0  101    0  0.0000000000E+00  0.0000000000E+00  2.2144362171E+03  2.2144362171E+03  0.0000000000E+00 0. 9.
       2   -1    0    0  102    0  0.0000000000E+00  0.0000000000E+00 -1.8576988533E+03  1.8576988533E+03  0.0000000000E+00 0. 9.
 2000002    2    1    2  102    0 -4.9513722744E+02 -2.8197503817E+02  1.8600688261E+03  2.1833920384E+03  9.9129912700E+02 0. 9.
 2000002    2    1    2  101    0  4.9513722744E+02  2.8197503817E+02 -1.5033314624E+03  1.8887430320E+03  9.9129912700E+02 0. 9.
 1000021    2    3    0  102  103 -3.6499943460E+02 -1.6441352979E+02  1.4259761814E+03  1.7152114253E+03  8.6503512500E+02 0. 9.
       2    1    3    0  103    0 -1.3013779284E+02 -1.1756150837E+02  4.3409264465E+02  4.6818061302E+02  3.3000000000E-01 0. 9.
 1000022    1    4    0    0    0 -1.4833079943E+02  4.3886164448E+02 -6.1463447816E+02  7.8038977270E+02  1.2896157000E+02 0. 9.
       2    1    4    0  101    0  6.4346802687E+02 -1.5688660631E+02 -8.8869698422E+02  1.1083532593E+03  3.3000000000E-01 0. 9.
 1000024    2    5    0    0    0 -4.8059356392E+02 -1.2754015913E+02  4.8722732496E+02  7.4632912037E+02  2.6903535800E+02 0. 9.
      -2    1    5    0    0  103  1.3545246216E+02  4.9789917501E+01  4.6560400091E+02  4.8745625440E+02  3.3000000000E-01 0. 9.
       1    1    5    0  102    0 -1.9858332849E+01 -8.6663288163E+01  4.7314485557E+02  4.8142605055E+02  3.3000000000E-01 0. 9.
 1000022    1    9    0    0    0 -1.8094587513E+02 -9.1880959179E+01  2.9106049875E+02  3.7753254278E+02  1.2896157000E+02 0. 9.
      24    2    9    0    0    0 -2.9964768878E+02 -3.5659199952E+01  1.9616682621E+02  3.6879657759E+02  8.0431188000E+01 0. 9.
      -3    1   13    0    0  104 -9.2417701311E+01  2.0174579755E+01  8.4593475435E+01  1.2690292065E+02  5.0000000000E-01 0. 9.
       4    1   13    0  104    0 -2.0722998747E+02 -5.5833779707E+01  1.1157335078E+02  2.4189365694E+02  1.5000000000E+00 0. 9.
</event>
<event>
    19   271  1.000000E+00  1.057288E+03  7.982354E-03  9.214983E-02
       2   -1    0    0  101    0  0.0000000000E+00  0.0000000000E+00  1.8573233352E+03  1.8573233352E+03  0.0000000000E+00 0. 9.
       2   -1    0    0  102    0  0.0000000000E+00  0.0000000000E+00 -6.0622201529E+02  6.0622201529E+02  0.0000000000E+00 0. 9.
 1000002    2    1    2  102    0  2.3857220136E+02  2.7902581890E+02  7.2998339929E+02  1.2848084101E+03  9.9150632100E+02 0. 9.
 1000002    2    1    2  101    0 -2.3857220136E+02 -2.7902581890E+02  5.2111792064E+02  1.1787369404E+03  9.9150632100E+02 0. 9.
 1000024    2    3    0    0    0  3.6849082733E+02  1.5052341687E+02  9.0953193290E+02  1.0286258550E+03  2.6903535800E+02 0. 9.
       1    1    3    0  102    0 -1.2991862596E+02  1.2850240203E+02 -1.7954853361E+02  2.5618255507E+02  3.3000000000E-01 0. 9.
 1000021    2    4    0  101  103 -2.7616774998E+02 -2.6280241784E+02  5.7847303628E+02  1.1082646607E+03  8.6503512500E+02 0. 9.
       2    1    4    0  103    0  3.7595548617E+01 -1.6223401056E+01 -5.7355115639E+01  7.0472279711E+01  3.3000000000E-01 0. 9.
 1000022    1    5    0    0    0  1.9924874314E+02  1.3859201409E+02  6.7066796596E+02  7.2479956892E+02  1.2896157000E+02 0. 9.
      24    2    5    0    0    0  1.6924208419E+02  1.1931402772E+01  2.3886396695E+02  3.0382628612E+02  8.0431188000E+01 0. 9.
 1000024    2    7    0    0    0  5.1515882796E+01 -2.5089893354E+00  4.6040603171E+01  2.7777678485E+02  2.6903535800E+02 0. 9.
      -2    1    7    0    0  103 -2.1356585566E+02 -1.6583936413E+02 -7.6048771125E+00  2.7050140934E+02  3.3000000000E-01 0. 9.
       1    1    7    0  101    0 -1.1411777711E+02 -9.4454064375E+01  5.4003731022E+02  5.5998646650E+02  3.3000000000E-01 0. 9.
      -3    1   10    0    0  104  5.3119885113E+01  5.1827464489E+00  1.4448345613E+02  1.5402695268E+02  5.0000000000E-01 0. 9.
       4    1   10    0  104    0  1.1612219907E+02  6.7486563233E+00  9.4380510815E+01  1.4979933345E+02  1.5000000000E+00 0. 9.
 1000022    1   11    0    0    0  2.3011792422E+00  6.5417994619E+01 -1.6912112888E+01  1.4560877565E+02  1.2896157000E+02 0. 9.
      24    2   11    0    0    0  4.9214703554E+01 -6.7926983954E+01  6.2952716059E+01  1.3216800921E+02  8.0431188000E+01 0. 9.
      -3    1   17    0    0  105  1.7737526220E+01  7.8298134052E+00  4.3815144444E+01  4.7915996254E+01  5.0000000000E-01 0. 9.
       4    1   17    0  105    0  3.1477177334E+01 -7.5756797359E+01  1.9137571615E+01  8.4252012952E+01  1.5000000000E+00 0. 9.
</event>
<event>
    12   226  1.000000E+00  3.524672E+02  7.882843E-03  1.051358E-01
      -1   -1    0    0    0  101  0.0000000000E+00  0.0000000000E+00  2.9442172044E+02  2.9442172044E+02  0.0000000000E+00 0. 9.
       1   -1    0    0  101    0  0.0000000000E+00  0.0000000000E+00 -4.2714201781E+02  4.2714201781E+02  0.0000000000E+00 0. 9.
 1000024    2    1    2    0    0  2.2767236158E+02 -4.2862356207E+00 -1.0611251474E+02  3.6809369144E+02  2.6903535800E+02 0. 9.
-1000024    2    1    2    0    0 -2.2767236158E+02  4.2862356207E+00 -2.6607782632E+01  3.5347004681E+02  2.6903535800E+02 0. 9.
 1000022    1    3    0    0    0  1.7104953860E+02  5.4590643437E+01 -1.2178423379E+02  2.5238971679E+02  1.2896157000E+02 0. 9.
      24    2    3    0    0    0  5.6622822976E+01 -5.8876879058E+01  1.5671719045E+01  1.1570397465E+02  8.0431188000E+01 0. 9.
 1000022    1    4    0    0    0 -2.0104145465E+02 -5.5215806535E+01  5.0693685129E+00  2.4520040133E+02  1.2896157000E+02 0. 9.
     -24    2    4    0    0    0 -2.6630906926E+01  5.9502042156E+01 -3.1677151145E+01  1.0826964548E+02  8.0431188000E+01 0. 9.
      -1    1    6    0    0  102  1.8671032949E+01 -1.9297807436E+00 -2.8589686708E+01  3.4202494224E+01  3.3000000000E-01 0. 9.
       2    1    6    0  102    0  3.7951790028E+01 -5.6947098314E+01  4.4261405753E+01  8.1501480428E+01  3.3000000000E-01 0. 9.
       1    1    8    0  103    0  1.0163926936E+01  3.7887054204E+01 -4.8517148065E+01  6.2391961369E+01  3.3000000000E-01 0. 9.
      -2    1    8    0    0  103 -3.6794833862E+01  2.1614987951E+01  1.6839996920E+01  4.5877684110E+01  3.3000000000E-01 0. 9.
</event>
<event>
    11   272  1.000000E+00  1.139517E+03  7.989231E-03  9.138027E-02
       2   -1    0    0  101    0  0.0000000000E+00  0.0000000000E+00  1.1947608516E+03  1.1947608516E+03  0.0000000000E+00 0. 9.
       1   -1    0    0  102    0  0.0000000000E+00  0.0000000000E+00 -1.0870419896E+03  1.0870419896E+03  0.0000000000E+00 0. 9.
 2000002    2    1    2  102    0  4.7374612054E+02  3.0163874130E+02  6.9900308245E+01  1.1414820758E+03  9.9129912700E+02 0. 9.
 2000001    2    1    2  101    0 -4.7374612054E+02 -3.0163874130E+02  3.7818553748E+01  1.1403207654E+03  9.9170554500E+02 0. 9.
 1000022    1    3    0    0    0  7.1900446533E+02  3.6419407153E+02  2.2238913342E+02  8.4598626236E+02  1.2896157000E+02 0. 9.
       2    1    3    0  102    0 -2.4525834479E+02 -6.2555330226E+01 -1.5248882517E+02  2.9549581339E+02  3.3000000000E-01 0. 9.
 1000021    2    4    0  101  103 -4.0627008637E+02 -2.8286096929E+02 -8.3577410059E+01  1.0001683168E+03  8.6503512500E+02 0. 9.
       1    1    4    0  103    0 -6.7476034171E+01 -1.8777772011E+01  1.2139596381E+02  1.4015244856E+02  3.3000000000E-01 0. 9.
 1000022    1    7    0    0    0 -4.6556031580E+02 -1.7290779274E+02 -2.3814323974E+02  5.6567375899E+02  1.2896157000E+02 0. 9.
       3    1    7    0  101    0  4.5486103268E+01  3.6159194448E+01 -1.1427566239E+02  1.2820159886E+02  5.0000000000E-01 0. 9.
      -3    1    7    0    0  103  1.3804126163E+01 -1.4611237100E+02  2.6884149208E+02  3.0629295898E+02  5.0000000000E-01 0. 9.
</event>
<event>
    17   258  1.000000E+00  1.019214E+03  7.978991E-03  9.253140E-02
       1   -1    0    0  101    0  0.0000000000E+00  0.0000000000E+00  9.3607121782E+02  9.3607121782E+02  0.0000000000E+00 0. 9.
      21   -1    0    0  102  101  0.0000000000E+00  0.0000000000E+00 -1.1661318094E+03  1.1661318094E+03  0.0000000000E+00 0. 9.
 1000001    2    1    2  103    0  2.8056331295E+02  3.0265895235E+02  1.1691089436E+02  1.0828928715E+03  9.9431916400E+02 0. 9.
 1000021    2    1    2  102  103 -2.8056331295E+02 -3.0265895235E+02 -3.4697148591E+02  1.0193101557E+03  8.6503512500E+02 0. 9.
-1000024    2    3    0    0    0 -2.7646145494E+02  2.8585137469E+02 -8.9911615309E+01  4.8847319978E+02  2.6903535800E+02 0. 9.
       2    1    3    0  103    0  5.5702476789E+02  1.6807577655E+01  2.0682250967E+02  5.9441967171E+02  3.3000000000E-01 0. 9.
-1000024    2    4    0    0    0 -2.1653940449E+02 -7.1360960111E+01 -2.6625807436E+02  4.4187677732E+02  2.6903535800E+02 0. 9.
       2    1    4    0  102    0  2.2259747715E+02 -5.8947173334E+01  1.1329936210E+01  2.3054908898E+02  3.3000000000E-01 0. 9.
      -1    1    4    0    0  103 -2.8662138561E+02 -1.7235081890E+02 -9.2043347767E+01  3.4688428940E+02  3.3000000000E-01 0. 9.
 1000022    1    5    0    0    0 -1.0145773697E+02  2.2189152146E+02 -6.8908748215E+01  2.8444511211E+02  1.2896157000E+02 0. 9.
     -24    2    5    0    0    0 -1.7500371797E+02  6.3959853232E+01 -2.1002867094E+01  2.0402808767E+02  8.0431188000E+01 0. 9.
 1000022    1    7    0    0    0 -8.6892309145E+01 -1.0154779828E+01 -3.7681690225E+01  1.6032588455E+02  1.2896157000E+02 0. 9.
     -24    2    7    0    0    0 -1.2964709534E+02 -6.1206180283E+01 -2.2857638413E+02  2.8155089277E+02  8.0431188000E+01 0. 9.
       3    1   11    0  104    0  5.5449218135E+00 -6.2940862544E+00  2.7374455462E+00  8.8377196048E+00  5.0000000000E-01 0. 9.
      -4    1   11    0    0  104 -1.8054863978E+02  7.0253939487E+01 -2.3740312640E+01  1.9519036806E+02  1.5000000000E+00 0. 9.
      13    1   13    0    0    0 -2.8678593510E+00  1.0160549026E+01  5.1838322818E-02  1.0558182846E+01  1.0566000000E-01 0. 9.
     -14    1   13    0    0    0 -1.2677923599E+02 -7.1366729309E+01 -2.2862822245E+02  2.7099270993E+02  0.0000000000E+00 0. 9.
</event>
<event>
    20   259  1.000000E+00  9.979721E+02  7.977061E-03  9.275196E-02
      21   -1    0    0  101  102  0.0000000000E+00  0.0000000000E+00  1.6717845767E+03  1.6717845767E+03  0.0000000000E+00 0. 9.
       1   -1    0    0  102    0  0.0000000000E+00  0.0000000000E+00 -6.2299274835E+02  6.2299274835E+02  0.0000000000E+00 0. 9.
 1000021    2    1    2  101  103  3.4675676421E+02  9.9122726540E+01  7.4336058421E+02  1.1962174945E+03  8.6503512500E+02 0. 9.
 2000001    2    1    2  103    0 -3.4675676421E+02 -9.9122726540E+01  3.0543124412E+02  1.0985598306E+03  9.9170554500E+02 0. 9.
 1000023    2    3    0    0    0  1.8395783733E+02 -1.7435084585E+02  6.6998146935E+01  3.7554063886E+02  2.6889276000E+02 0. 9.
       2    1    3    0  101    0  8.1905327178E+01  1.7834853547E+01 -9.4072349907E+00  8.4351464666E+01  3.3000000000E-01 0. 9.
      -2    1    3    0    0  103  8.0893599705E+01  2.5563871885E+02  6.8576967227E+02  7.3632539094E+02  3.3000000000E-01 0. 9.
 1000021    2    4    0  103  104 -2.8054239261E+02  8.7233337850E+00  1.9389391974E+02  9.2987136218E+02  8.6503512500E+02 0. 9.
       1    1    4    0  104    0 -6.6214371608E+01 -1.0784606033E+02  1.1153732438E+02  1.6868846838E+02  3.3000000000E-01 0. 9.
 1000022    1    5    0    0    0  8.0053189466E+01 -4.6496152052E+01  5.1665629705E+01  1.6694558733E+02  1.2896157000E+02 0. 9.
      25    2    5    0    0    0  1.0390464786E+02 -1.2785469380E+02  1.5332517230E+01  2.0859505153E+02  1.2701893900E+02 0. 9.
 1000023    2    8    0    0    0 -7.3846968889E+01 -2.8272440810E+02  1.1099851109E+02  4.1232323678E+02  2.6889276000E+02 0. 9.
       1    1    8    0  103    0 -1.7372055019E+02 -1.0202327496E+01 -5.7394458905E+01  1.8324068832E+02  3.3000000000E-01 0. 9.
      -1    1    8    0    0  104 -3.2974873529E+01  3.0165006938E+02  1.4028986756E+02  3.3430743707E+02  3.3000000000E-01 0. 9.
       5    1   11    0  105    0  7.7352192572E+01 -5.9767754627E+00 -1.7167995117E+01  7.9604419457E+01  4.8000000000E+00 0. 9.
      -5    1   11    0    0  105  2.6552455293E+01 -1.2187791834E+02  3.2500512347E+01  1.2899063208E+02  4.8000000000E+00 0. 9.
 1000022    1   12    0    0    0 -2.3913959324E+01 -1.1811079809E+02  1.2644354969E+01  1.7695480871E+02  1.2896157000E+02 0. 9.
      25    2   12    0    0    0 -4.9933009566E+01 -1.6461361001E+02  9.8354156116E+01  2.3536842808E+02  1.2701893900E+02 0. 9.
       5    1   18    0  106    0 -6.9627698733E+01 -1.3300340358E+02  2.4052570288E+01  1.5211669183E+02  4.8000000000E+00 0. 9.
      -5    1   18    0    0  106  1.9694689167E+01 -3.1610206431E+01  7.4301585829E+01  8.3251736250E+01  4.8000000000E+00 0. 9.
</event>
<event>
    18   244  1.000000E+00  8.694012E+02  7.964447E-03  9.422270E-02
      21   -1    0    0  101  102  0.0000000000E+00  0.0000000000E+00  6.2646687994E+02  6.2646687994E+02  0.0000000000E+00 0. 9.
      21   -1    0    0  103  104  0.0000000000E+00  0.0000000000E+00 -1.3015729871E+03  1.3015729871E+03  0.0000000000E+00 0. 9.
 1000021    2    1    2  101  104 -1.2106085988E+01  8.6175228224E+01 -5.9803927921E+02  1.0552295837E+03  8.6503512500E+02 0. 9.
 1000021    2    1    2  103  102  1.2106085988E+01 -8.6175228224E+01 -7.7066827937E+01  8.7281028335E+02  8.6503512500E+02 0. 9.
 1000023    2    3    0    0    0  6.3046872726E+01 -9.9938676515E+01 -1.8115469200E+02  3.4508402750E+02  2.6889276000E+02 0. 9.
       2    1    3    0  101    0  1.5757926014E+02  1.3749838392E+02  2.2720788614E+01  2.1036485434E+02  3.3000000000E-01 0. 9.
      -2    1    3    0    0  104 -2.3273221885E+02  4.8615520819E+01 -4.3960537582E+02  4.9978070182E+02  3.3000000000E-01 0. 9.
 1000024    2    4    0    0    0  1.9013004443E+02 -6.4122589525E+01  1.0422990864E+02  3.5143283567E+02  2.6903535800E+02 0. 9.
      -4    1    4    0    0  102 -1.8632600620E+02 -1.1276341693E+02  8.9651955728E+01  2.3552641455E+02  1.5000000000E+00 0. 9.
       3    1    4    0  103    0  8.3020477610E+00  9.0710778231E+01 -2.7094869230E+02  2.8585103313E+02  5.0000000000E-01 0. 9.
 1000022    1    5    0    0    0  3.5112438945E+01 -7.9618330013E+00 -9.3039364015E+01  1.6304503656E+02  1.2896157000E+02 0. 9.
      25    2    5    0    0    0  2.7934433781E+01 -9.1976843514E+01 -8.8115327982E+01  1.8203899094E+02  1.2701893900E+02 0. 9.
 1000022    1    8    0    0    0  1.9009639085E+01  1.3413890221E+01  3.4580036117E+01  1.3552920078E+02  1.2896157000E+02 0. 9.
      24    2    8    0    0    0  1.7112040534E+02 -7.7536479746E+01  6.9649872518E+01  2.1590363489E+02  8.0431188000E+01 0. 9.
      21    1   12    0  105  106 -2.3109383610E+01 -6.7378688673E+01  6.7391007643E+00  7.1549610601E+01  0.0000000000E+00 0. 9.
      21    1   12    0  106  105  5.1043817392E+01 -2.4598154841E+01 -9.4854428746E+01  1.1048938034E+02  0.0000000000E+00 0. 9.
      -3    1   14    0    0  107  1.5012921968E+02 -9.4436047203E+01  6.1118888620E+01  1.8759722322E+02  5.0000000000E-01 0. 9.
       4    1   14    0  107    0  2.0991185666E+01  1.6899567457E+01  8.5309838986E+00  2.8306411680E+01  1.5000000000E+00 0. 9.
</event>
<event>
    13   258  1.000000E+00  9.605384E+02  7.973561E-03  9.315503E-02
      21   -1    0    0  101  102  0.0000000000E+00  0.0000000000E+00  1.2763119867E+03  1.2763119867E+03  0.0000000000E+00 0. 9.
       2   -1    0    0  102    0  0.0000000000E+00  0.0000000000E+00 -7.2938316544E+02  7.2938316544E+02  0.0000000000E+00 0. 9.
 1000021    2    1    2  101  103  1.8813099550E+02 -1.4681787388E+02  1.4241939098E+02  9.0858010652E+02  8.6503512500E+02 0. 9.
 1000002    2    1    2  103    0 -1.8813099550E+02  1.4681787388E+02  4.0450943029E+02  1.0971150456E+03  9.9150632100E+02 0. 9.
 1000022    1    3    0    0    0  1.0524055181E+02 -4.7468256531E+02  8.9525336129E+01  5.1092561484E+02  1.2896157000E+02 0. 9.
       2    1    3    0  101    0  3.4810917120E+01  8.8149443173E+01 -7.5803640138E+01  1.2136072281E+02  3.3000000000E-01 0. 9.
      -2    1    3    0    0  103  4.8079526570E+01  2.3971524826E+02  1.2869769499E+02  2.7629376887E+02  3.3000000000E-01 0. 9.
 1000024    2    4    0    0    0 -4.6328071433E+02 -1.9792710190E+02  2.9419242572E+02  6.4244327776E+02  2.6903535800E+02 0. 9.
       1    1    4    0  103    0  2.7514971882E+02  3.4474497578E+02  1.1031700458E+02  4.5467176787E+02  3.3000000000E-01 0. 9.
 1000022    1    8    0    0    0 -1.9070977165E+02 -1.2015804935E+02  2.1554284393E+02  3.3748774486E+02  1.2896157000E+02 0. 9.
      24    2    8    0    0    0 -2.7257094268E+02 -7.7769052551E+01  7.8649581793E+01  3.0495553290E+02  8.0431188000E+01 0. 9.
     -15    1   11    0    0    0 -1.4643000914E+02 -2.3829325441E+01  3.2310863217E+00  1.4840209559E+02  1.7770000000E+00 0. 9.
      16    1   11    0    0    0 -1.2614093354E+02 -5.3939727110E+01  7.5418495471E+01  1.5655343731E+02  0.0000000000E+00 0. 9.
</event>
<event>
    12   226  1.000000E+00  2.729644E+02  7.860042E-03  1.087002E-01
       1   -1    0    0  101    0  0.0000000000E+00  0.0000000000E+00  1.3098289259E+03  1.3098289259E+03  0.0000000000E+00 0. 9.
      -1   -1    0    0    0  101  0.0000000000E+00  0.0000000000E+00 -2.9283439726E+02  2.9283439726E+02  0.0000000000E+00 0. 9.
-1000024    2    1    2    0    0 -3.9129458201E+01  2.4462967593E+01  1.2277983647E+03  1.2577751784E+03  2.6903535800E+02 0. 9.
 1000024    2    1    2    0    0  3.9129458201E+01 -2.4462967593E+01 -2.1080383600E+02  3.4488814478E+02  2.6903535800E+02 0. 9.
 1000022    1    3    0    0    0 -7.1638350345E+00  5.5978271724E+01  3.8444705737E+02  4.0940873696E+02  1.2896157000E+02 0. 9.
     -24    2    3    0    0    0 -3.1965623166E+01 -3.1515304131E+01  8.4335130730E+02  8.4836644146E+02  8.0431188000E+01 0. 9.
 1000022    1    4    0    0    0  6.3531790020E+01  3.3685774269E+01 -5.3003397914E+01  1.5688042089E+02  1.2896157000E+02 0. 9.
      24    2    4    0    0    0 -2.4402331820E+01 -5.8148741862E+01 -1.5780043809E+02  1.8800772389E+02  8.0431188000E+01 0. 9.
       3    1    6    0  102    0 -8.7183858261E-01 -5.3804202094E+01  4.9873036511E+02  5.0162523794E+02  5.0000000000E-01 0. 9.
      -4    1    6    0    0  102 -3.1093784584E+01  2.2288897963E+01  3.4462094220E+02  3.4674120351E+02  1.5000000000E+00 0. 9.
      -3    1    8    0    0  103 -4.7420233404E+01 -3.8203197535E+01 -1.4006621742E+02  1.5273165389E+02  5.0000000000E-01 0. 9.
       4    1    8    0  103    0  2.3017901584E+01 -1.9945544327E+01 -1.7734220668E+01  3.5276069999E+01  1.5000000000E+00 0. 9.
</event>
<event>
    16   258  1.000000E+00  1.053380E+03  7.982015E-03  9.218820E-02
      -1   -1    0    0    0  101  0.0000000000E+00  0.0000000000E+00  4.1554431766E+02  4.1554431766E+02  0.0000000000E+00 0. 9.
      21   -1    0    0  101  102  0.0000000000E+00  0.0000000000E+00 -2.7001535441E+03  2.7001535441E+03  0.0000000000E+00 0. 9.
-1000001    2    1    2    0  103 -1.8449359867E+02  4.5507587094E+02 -1.0195491782E+03  1.5064139746E+03  9.9431916400E+02 0. 9.
 1000021    2    1    2  103  102  1.8449359867E+02 -4.5507587094E+02 -1.2650600482E+03  1.6092838871E+03  8.6503512500E+02 0. 9.
 1000021    2    3    0  104  103 -2.3654431015E+02  4.6629098734E+02 -8.2502702451E+02  1.3047359327E+03  8.6503512500E+02 0. 9.
      -1    1    3    0    0  104  5.2050711472E+01 -1.1215116400E+01 -1.9452215367E+02  2.0167804187E+02  3.3000000000E-01 0. 9.
 1000024    2    4    0    0    0  3.1401429089E+02 -7.9670722358E+01 -8.1177333963E+02  9.1449897631E+02  2.6903535800E+02 0. 9.
      -4    1    4    0    0  102 -2.3969473851E+02 -1.7359834335E+02 -2.3765732839E+02  3.7956976727E+02  1.5000000000E+00 0. 9.
       3    1    4    0  103    0  1.1017404630E+02 -2.0180680523E+02 -2.1562938020E+02  3.1521514355E+02  5.0000000000E-01 0. 9.
 1000022    1    5    0    0    0  5.1253388578E+01  1.1308075689E+02 -3.6295814025E+01  1.8265442801E+02  1.2896157000E+02 0. 9.
       2    1    5    0  104    0  5.3869615280E+01 -1.3106698760E+02 -3.7057045716E+02  3.9674054911E+02  3.3000000000E-01 0. 9.
      -2    1    5    0    0  103 -3.4166731400E+02  4.8427721805E+02 -4.1816075333E+02  7.2534095562E+02  3.3000000000E-01 0. 9.
 1000022    1    7    0    0    0  1.8630084839E+02 -1.2969105306E+02 -4.7297047015E+02  5.4024062003E+02  1.2896157000E+02 0. 9.
      24    2    7    0    0    0  1.2771344250E+02  5.0020330700E+01 -3.3880286947E+02  3.7425835628E+02  8.0431188000E+01 0. 9.
      -1    1   14    0    0  105  1.2382453104E+02  6.1717233051E+01 -2.6021667537E+02  2.9471063500E+02  3.3000000000E-01 0. 9.
       2    1   14    0  105    0  3.8889114640E+00 -1.1696902351E+01 -7.8586194105E+01  7.9547721280E+01  3.3000000000E-01 0. 9.
</event>
<event>
    12   230  1.000000E+00  3.081071E+02  7.870828E-03  1.069818E-01
       2   -1    0    0  101    0  0.0000000000E+00  0.0000000000E+00  9.0896201250E+02  9.0896201250E+02  0.0000000000E+00 0. 9.
      -1   -1    0    0    0  101  0.0000000000E+00  0.0000000000E+00 -1.0536727439E+02  1.0536727439E+02  0.0000000000E+00 0. 9.
 1000024    2    1    2    0    0  9.1850360864E+01 -1.1896140248E+02  4.4951220941E+02  5.4500417827E+02  2.6903535800E+02 0. 9.
 1000023    2    1    2    0    0 -9.1850360864E+01  1.1896140248E+02  3.5408252870E+02  4.6932510862E+02  2.6889276000E+02 0. 9.
 1000022    1    3    0    0    0  9.3721123481E+01 -6.2331106376E+01  3.9952289038E+02  4.3464749198E+02  1.2896157000E+02 0. 9.
      24    2    3    0    0    0 -1.8707626172E+00 -5.6630296104E+01  4.9989319030E+01  1.1035668629E+02  8.0431188000E+01 0. 9.
 1000022    1    4    0    0    0 -3.2727425116E+00  4.7604442834E+01  1.6157163747E+02  2.1216355576E+02  1.2896157000E+02 0. 9.
      25    2    4    0    0    0 -8.8577618353E+01  7.1356959646E+01  1.9251089123E+02  2.5716155286E+02  1.2701893900E+02 0. 9.
      -3    1    6    0    0  102  2.8895757904E+01 -6.0768464095E+01  3.3298655268E+01  7.5078768610E+01  5.0000000000E-01 0. 9.
       4    1    6    0  102    0 -3.0766520521E+01  4.1381679912E+00  1.6690663762E+01  3.5277917684E+01  1.5000000000E+00 0. 9.
       5    1    8    0  103    0 -9.1548099765E+01  4.2945101162E+01  2.0260275125E+02  2.2648675700E+02  4.8000000000E+00 0. 9.
      -5    1    8    0    0  103  2.9704814126E+00  2.8411858485E+01 -1.0091860017E+01  3.0674795859E+01  4.8000000000E+00 0. 9.
</event>
<event>
    19   271  1.000000E+00  1.163715E+03  7.991162E-03  9.116666E-02
       2   -1    0    0  101    0  0.0000000000E+00  0.0000000000E+00  1.1670023586E+03  1.1670023586E+03  0.0000000000E+00 0. 9.
       2   -1    0    0  102    0  0.0000000000E+00  0.0000000000E+00 -1.1604884427E+03  1.1604884427E+03  0.0000000000E+00 0. 9.
 1000002    2    1    2  101    0 -1.0274115817E+02 -6.0049392542E+02  1.0955369218E+01  1.1637669461E+03  9.9150632100E+02 0. 9.
 1000002    2    1    2  102    0  1.0274115817E+02  6.0049392542E+02 -4.4414533595E+00  1.1637238552E+03  9.9150632100E+02 0. 9.
 1000021    2    3    0  101  103 -1.4325084035E+02 -4.8108215578E+02  1.0619446181E+02  1.0057454325E+03  8.6503512500E+02 0. 9.
       2    1    3    0  103    0  4.0509682180E+01 -1.1941176964E+02 -9.5239092590E+01  1.5802151352E+02  3.3000000000E-01 0. 9.
 1000024    2    4    0    0    0 -1.6399932501E+02  7.3517712970E+02 -1.7624826679E+02  8.1903886723E+02  2.6903535800E+02 0. 9.
       1    1    4    0  102    0  2.6674048318E+02 -1.3468320428E+02  1.7180681343E+02  3.4468498796E+02  3.3000000000E-01 0. 9.
 1000023    2    5    0    0    0 -8.3647225878E+01 -2.3391321378E+02 -2.2144169709E+01  3.6675050186E+02  2.6889276000E+02 0. 9.
       2    1    5    0  101    0  2.4477191500E+02 -1.3622763902E+02  1.4336624614E+02  3.1468277589E+02  3.3000000000E-01 0. 9.
      -2    1    5    0    0  103 -3.0437552947E+02 -1.1094130298E+02 -1.5027614626E+01  3.2431215480E+02  3.3000000000E-01 0. 9.
 1000022    1    7    0    0    0 -4.0638568785E+01  2.4322038697E+02 -7.0852656677E+00  2.7836834848E+02  1.2896157000E+02 0. 9.
      24    2    7    0    0    0 -1.2336075622E+02  4.9195674273E+02 -1.6916300112E+02  5.4067051875E+02  8.0431188000E+01 0. 9.
 1000022    1    9    0    0    0 -1.7759721989E+01 -1.5344216500E+02 -9.8407476706E-01  2.0122614309E+02  1.2896157000E+02 0. 9.
      25    2    9    0    0    0 -6.5887503888E+01 -8.0471048786E+01 -2.1160094942E+01  1.6552435876E+02  1.2701893900E+02 0. 9.
     -15    1   13    0    0    0  1.9676863772E+00  1.4261865420E+01 -2.0128728302E+01  2.4811207689E+01  1.7770000000E+00 0. 9.
      16    1   13    0    0    0 -1.2532844260E+02  4.7769487731E+02 -1.4903427282E+02  5.1585931106E+02  0.0000000000E+00 0. 9.
       5    1   15    0  104    0 -3.7089887785E+01  2.6845070581E+01 -2.8367413823E+01  5.4074649859E+01  4.8000000000E+00 0. 9.
      -5    1   15    0    0  104 -2.8797616103E+01 -1.0731611937E+02  7.2073188803E+00  1.1144970890E+02  4.8000000000E+00 0. 9.
</event>
<event>
    12   230  1.000000E+00  3.903664E+02  7.891990E-03  1.037761E-01
      -1   -1    0    0    0  101  0.0000000000E+00  0.0000000000E+00  4.3614681010E+02  4.3614681010E+02  0.0000000000E+00 0. 9.
       2   -1    0    0  101    0  0.0000000000E+00  0.0000000000E+00 -3.5145752922E+02  3.5145752922E+02  0.0000000000E+00 0. 9.
 1000023    2    1    2    0    0 -1.4706722862E+02  2.4169291641E+02  1.2144667241E+01  3.9050613939E+02  2.6889276000E+02 0. 9.
 1000024    2    1    2    0    0  1.4706722862E+02 -2.4169291641E+02  7.2544613641E+01  3.9709819994E+02  2.6903535800E+02 0. 9.
 1000022    1    3    0    0    0 -1.3136946643E+02  1.2785631864E+02  6.6926040243E+01  2.3391313842E+02  1.2896157000E+02 0. 9.
      23    2    3    0    0    0 -1.5697762184E+01  1.1383659777E+02 -5.4781373002E+01  1.5659300096E+02  9.1187600000E+01 0. 9.
 1000022    1    4    0    0    0  1.0814306713E+02 -2.2812201749E+02  3.7468735549E+00  2.8351314508E+02  1.2896157000E+02 0. 9.
      24    2    4    0    0    0  3.8924161483E+01 -1.3570898916E+01  6.8797740086E+01  1.1358505486E+02  8.0431188000E+01 0. 9.
       3    1    6    0  102    0 -1.5479873211E+01  3.3599444854E+01 -6.5912008631E+01  7.5585660353E+01  5.0000000000E-01 0. 9.
      -3    1    6    0    0  102 -2.1788897247E-01  8.0237152913E+01  1.1130635630E+01  8.1007340610E+01  5.0000000000E-01 0. 9.
      -3    1    8    0    0  103  4.4277318805E+01 -3.9809635297E+01  6.1901593684E+01  8.5891474104E+01  5.0000000000E-01 0. 9.
       4    1    8    0  103    0 -5.3531573221E+00  2.6238736381E+01  6.8961464015E+00  2.7693580761E+01  1.5000000000E+00 0. 9.
</event>
<event>
     8   272  1.000000E+00  1.123302E+03  7.987914E-03  9.152653E-02
       1   -1    0    0  101    0  0.0000000000E+00  0.0000000000E+00  9.2877941937E+02  9.2877941937E+02  0.0000000000E+00 0. 9.
       2   -1    0    0  102    0  0.0000000000E+00  0.0000000000E+00 -1.6294802144E+03  1.6294802144E+03  0.0000000000E+00 0. 9.
 2000001    2    1    2  102    0  8.8782980509E+01 -5.2043070894E+02  1.7116572669E+02  1.1364453944E+03  9.9170554500E+02 0. 9.
 2000002    2    1    2  101    0 -8.8782980509E+01  5.2043070894E+02 -8.7186652169E+02  1.4218142394E+03  9.9129912700E+02 0. 9.
 1000022    1    3    0    0    0  2.1179598921E+01 -2.5101130024E+02  5.7815542783E+02  6.4370026683E+02  1.2896157000E+02 0. 9.
       1    1    3    0  102    0  6.7603381588E+01 -2.6941940870E+02 -4.0698970114E+02  4.9274512755E+02  3.3000000000E-01 0. 9.
 1000022    1    4    0    0    0  1.2558421642E+02  7.7174880206E+02 -5.9944159144E+02  9.9364426078E+02  1.2896157000E+02 0. 9.
       2    1    4    0  101    0 -2.1436719693E+02 -2.5131809311E+02 -2.7242493025E+02  4.2816997859E+02  3.3000000000E-01 0. 9.
</event>
<event>
    12   230  1.000000E+00  4.491630E+02  7.904590E-03  1.019647E-01
      -1   -1    0    0    0  101  0.0000000000E+00  0.0000000000E+00  3.5800410605E+02  3.5800410605E+02  0.0000000000E+00 0. 9.
       2   -1    0    0  101    0  0.0000000000E+00  0.0000000000E+00 -7.0780793536E+02  7.0780793536E+02  0.0000000000E+00 0. 9.
 1000023    2    1    2    0    0 -3.4560486711E+02 -9.9814717675E+01 -4.1548408769E+02  6.1183007897E+02  2.6889276000E+02 0. 9.
 1000024    2    1    2    0    0  3.4560486711E+02  9.9814717675E+01  6.5680258378E+01  4.5398196245E+02  2.6903535800E+02 0. 9.
 1000022    1    3    0    0    0 -1.1100380582E+02 -4.4314081849E+01 -1.4531993877E+02  2.2811083687E+02  1.2896157000E+02 0. 9.
      25    2    3    0    0    0 -2.3460106128E+02 -5.5500635826E+01 -2.7016414892E+02  3.8371924210E+02  1.2701893900E+02 0. 9.
 1000022    1    4    0    0    0  1.4965510709E+02  1.7830323446E+01  1.0348555792E+02  2.2372956610E+02  1.2896157000E+02 0. 9.
      24    2    4    0    0    0  1.9594976002E+02  8.1984394228E+01 -3.7805299540E+01  2.3025239635E+02  8.0431188000E+01 0. 9.
       5    1    6    0  102    0 -1.5654296345E+02  1.5113573101E+01 -2.0992668120E+02  2.6234780536E+02  4.8000000000E+00 0. 9.
      -5    1    6    0    0  102 -7.8058097833E+01 -7.0614208927E+01 -6.0237467726E+01  1.2137143675E+02  4.8000000000E+00 0. 9.
      -1    1    8    0    0  103  3.6566020507E+01  6.9029459558E+00  2.3145557030E+01  4.3824082749E+01  3.3000000000E-01 0. 9.
       2    1    8    0  103    0  1.5938373951E+02  7.5081448273E+01 -6.0950856569E+01  1.8642831360E+02  3.3000000000E-01 0. 9.
</event>
<event>
    22   271  1.000000E+00  1.147707E+03  7.989889E-03  9.130735E-02
       2   -1    0    0  101    0  0.0000000000E+00  0.0000000000E+00  1.7479625826E+03  1.7479625826E+03  0.0000000000E+00 0. 9.
       1   -1    0    0  102    0  0.0000000000E+00  0.0000000000E+00 -7.5728975371E+02  7.5728975371E+02  0.0000000000E+00 0. 9.
 1000002    2    1    2  102    0  2.8584584210E+02 -4.9964627261E+02  5.8248073726E+02  1.2859715537E+03  9.9150632100E+02 0. 9.
 1000001    2    1    2  101    0 -2.8584584210E+02  4.9964627261E+02  4.0819209163E+02  1.2192807826E+03  9.9431916400E+02 0. 9.
 1000021    2    3    0  102  103  3.2711581098E+02 -3.7806519199E+02  5.8456851658E+02  1.1575595714E+03  8.6503512500E+02 0. 9.
       2    1    3    0  103    0 -4.1269968881E+01 -1.2158108063E+02 -2.0877793230E+00  1.2841198238E+02  3.3000000000E-01 0. 9.
 1000021    2    4    0  101  104 -1.4989722463E+02  3.5082552208E+02  3.6291561585E+02  1.0126900990E+03  8.6503512500E+02 0. 9.
       1    1    4    0  104    0 -1.3594861747E+02  1.4882075053E+02  4.5276475778E+01  2.0659068357E+02  3.3000000000E-01 0. 9.
 1000024    2    5    0    0    0 -3.4250719885E+01 -2.7734450712E+02 -3.5211775711E+01  3.8950350505E+02  2.6903535800E+02 0. 9.
      -2    1    5    0    0  103  2.3880066853E+02 -1.7673442402E+02  3.2778288081E+02  4.4238280004E+02  3.3000000000E-01 0. 9.
       1    1    5    0  102    0  1.2256586234E+02  7.6013739148E+01  2.9199741148E+02  3.2567326627E+02  3.3000000000E-01 0. 9.
 1000024    2    7    0    0    0 -3.1539827808E+02 -4.9222262766E+01  3.1380283804E+02  5.2225582810E+02  2.6903535800E+02 0. 9.
      -2    1    7    0    0  104  1.2877571948E+02  4.2438996697E+02  5.0413545662E+01  4.4635374366E+02  3.3000000000E-01 0. 9.
       1    1    7    0  101    0  3.6725333965E+01 -2.4342182118E+01 -1.3007678467E+00  4.4080527244E+01  3.3000000000E-01 0. 9.
 1000022    1    9    0    0    0  3.6295815904E+01 -2.3803694383E+02 -1.3545308486E+01  2.7348406681E+02  1.2896157000E+02 0. 9.
      24    2    9    0    0    0 -7.0546535789E+01 -3.9307563286E+01 -2.1666467225E+01  1.1601943824E+02  8.0431188000E+01 0. 9.
 1000022    1   12    0    0    0 -9.1793709927E+01  3.1236384126E+01  1.6394965200E+02  2.3002689365E+02  1.2896157000E+02 0. 9.
      24    2   12    0    0    0 -2.2360456815E+02 -8.0458646892E+01  1.4985318604E+02  2.9222893445E+02  8.0431188000E+01 0. 9.
      -3    1   16    0    0  105 -6.0483182562E+01  1.1947599825E+01 -1.3739800574E+01  6.3166388485E+01  5.0000000000E-01 0. 9.
       4    1   16    0  105    0 -1.0063353228E+01 -5.1255163112E+01 -7.9266666505E+00  5.2853049751E+01  1.5000000000E+00 0. 9.
      -3    1   18    0    0  106 -1.2633191405E+01 -2.9926563737E+01  9.5224838922E+00  3.3854459701E+01  5.0000000000E-01 0. 9.
       4    1   18    0  106    0 -2.1097137675E+02 -5.0532083155E+01  1.4033070214E+02  2.5837447474E+02  1.5000000000E+00 0. 9.
</event>
<event>
    12   230  1.000000E+00  2.826069E+02  7.863131E-03  1.082020E-01
      -1   -1    0    0    0  101  0.0000000000E+00  0.0000000000E+00  6.1512149465E+02  6.1512149465E+02  0.0000000000E+00 0. 9.
       2   -1    0    0  101    0  0.0000000000E+00  0.0000000000E+00 -1.4008003986E+02  1.4008003986E+02  0.0000000000E+00 0. 9.
 1000023    2    1    2    0    0 -8.6575870120E+01  5.4405138132E+00  1.3536905623E+02  3.1329391670E+02  2.6889276000E+02 0. 9.
 1000024    2    1    2    0    0  8.6575870120E+01 -5.4405138132E+00  3.3967239856E+02  4.4190761781E+02  2.6903535800E+02 0. 9.
 1000022    1    3    0    0    0 -7.0240778297E+00 -1.2832748033E+01  8.0077306632E+01  1.5250402836E+02  1.2896157000E+02 0. 9.
      25    2    3    0    0    0 -7.9551792290E+01  1.8273261846E+01  5.5291749597E+01  1.6078988834E+02  1.2701893900E+02 0. 9.
 1000022    1    4    0    0    0  1.8601344907E+01 -4.9269793180E+01  2.8101092926E+02  3.1364271305E+02  1.2896157000E+02 0. 9.
      24    2    4    0    0    0  6.7974525212E+01  4.3829279367E+01  5.8661469304E+01  1.2826490475E+02  8.0431188000E+01 0. 9.
       5    1    6    0  102    0 -1.0589058972E+02  3.6820563115E+01  2.2254823232E+01  1.1439793712E+02  4.8000000000E+00 0. 9.
      -5    1    6    0    0  102  2.6338797434E+01 -1.8547301268E+01  3.3036926366E+01  4.6391951223E+01  4.8000000000E+00 0. 9.
      -3    1    8    0    0  103 -1.4041669745E+00 -1.7590479976E+01  2.2941340975E+01  2.8947397057E+01  5.0000000000E-01 0. 9.
       4    1    8    0  103    0  6.9378692187E+01  6.1419759343E+01  3.5720128330E+01  9.9317507697E+01  1.5000000000E+00 0. 9.
</event>
<event>
    12   273  1.000000E+00  1.146115E+03  7.989761E-03  9.132148E-02
       2   -1    0    0  101    0  0.0000000000E+00  0.0000000000E+00  1.8674775215E+03  1.8674775215E+03  0.0000000000E+00 0. 9.
       2   -1    0    0  102    0  0.0000000000E+00  0.0000000000E+00 -7.3080239532E+02  7.3080239532E+02  0.0000000000E+00 0. 9.
 1000002    2    1    2  101    0 -1.3940194260E+02  5.5791369718E+02  3.1680616436E+02  1.1891810314E+03  9.9150632100E+02 0. 9.
 2000002    2    1    2  102    0  1.3940194260E+02 -5.5791369718E+02  8.1986896182E+02  1.4090988854E+03  9.9129912700E+02 0. 9.
 1000024    2    3    0    0    0 -3.8077439551E+02  1.2486477243E+00  3.4777071576E+02  5.8164868605E+02  2.6903535800E+02 0. 9.
       1    1    3    0  101    0  2.4137245291E+02  5.5666504946E+02 -3.0964551400E+01  6.0753234535E+02  3.3000000000E-01 0. 9.
 1000022    1    4    0    0    0 -3.7082081158E+02 -1.3617167596E+02  9.2720804457E+01  4.2576875620E+02  1.2896157000E+02 0. 9.
       2    1    4    0  102    0  5.1022275419E+02 -4.2174202122E+02  7.2714815736E+02  9.8333012921E+02  3.3000000000E-01 0. 9.
 1000022    1    5    0    0    0 -2.4615355945E+02  1.7050033295E+01  1.1655961281E+02  3.0182695099E+02  1.2896157000E+02 0. 9.
      24    2    5    0    0    0 -1.3462083606E+02 -1.5801385570E+01  2.3121110295E+02  2.7982173507E+02  8.0431188000E+01 0. 9.
     -11    1   10    0    0    0 -9.4661818453E+01  2.0620241834E+01  1.8441942346E+02  2.0831845333E+02  5.1000000000E-04 0. 9.
      12    1   10    0    0    0 -3.9959017602E+01 -3.6421627404E+01  4.6791679487E+01  7.1503281741E+01  0.0000000000E+00 0. 9.
</event>
<event>
    22   271  1.000000E+00  1.025943E+03  7.979595E-03  9.246270E-02
       2   -1    0    0  101    0  0.0000000000E+00  0.0000000000E+00  1.1238698497E+03  1.1238698497E+03  0.0000000000E+00 0. 9.
       2   -1    0    0  102    0  0.0000000000E+00  0.0000000000E+00 -1.5550663196E+03  1.5550663196E+03  0.0000000000E+00 0. 9.
 1000002    2    1    2  102    0  7.1791647494E-02 -2.6358042913E+02  6.2916259362E+02  1.2034969886E+03  9.9150632100E+02 0. 9.
 1000002    2    1    2  101    0 -7.1791647494E-02  2.6358042913E+02 -1.0603590635E+03  1.4754391807E+03  9.9150632100E+02 0. 9.
 1000021    2    3    0  102  103 -9.0772837453E+01 -2.8030722862E+02  6.3198471784E+02  1.1110815908E+03  8.6503512500E+02 0. 9.
       2    1    3    0  103    0  9.0844629100E+01  1.6726799494E+01 -2.8221242210E+00  9.2415397758E+01  3.3000000000E-01 0. 9.
 1000021    2    4    0  101  104  9.3525628089E+01  1.8286572377E+02 -9.9937562834E+02  1.3376189031E+03  8.6503512500E+02 0. 9.
       2    1    4    0  104    0 -9.3597419736E+01  8.0714705352E+01 -6.0983435202E+01  1.3782027757E+02  3.3000000000E-01 0. 9.
 1000023    2    5    0    0    0  1.4231614633E+02  1.4874071816E+02  7.3509838343E+01  3.4653239309E+02  2.6889276000E+02 0. 9.
       3    1    5    0  102    0 -2.2131693969E+01 -6.6607354176E+01  2.0301273505E+02  2.1480403185E+02  5.0000000000E-01 0. 9.
      -3    1    5    0    0  103 -2.1095728981E+02 -3.6244059261E+02  3.5546214445E+02  5.4974516590E+02  5.0000000000E-01 0. 9.
 1000023    2    7    0    0    0 -1.5815874464E+02  1.5463254588E+02 -2.9756098211E+02  4.5800793357E+02  2.6889276000E+02 0. 9.
       2    1    7    0  101    0  3.5291932162E+02  1.2967462112E+02 -4.2179301854E+02  5.6504602850E+02  3.3000000000E-01 0. 9.
      -2    1    7    0    0  104 -1.0123494889E+02 -1.0144144323E+02 -2.8002162768E+02  3.1456494107E+02  3.3000000000E-01 0. 9.
 1000022    1    9    0    0    0  6.1007902605E+01  6.6872462607E+01  7.5957567986E+01  1.7491291864E+02  1.2896157000E+02 0. 9.
      25    2    9    0    0    0  8.1308243723E+01  8.1868255555E+01 -2.4477296432E+00  1.7161947445E+02  1.2701893900E+02 0. 9.
 1000022    1   12    0    0    0 -7.1379550433E+01  6.1984670511E+01 -8.9788026116E+01  1.8338515689E+02  1.2896157000E+02 0. 9.
      25    2   12    0    0    0 -8.6779194208E+01  9.2647875374E+01 -2.0777295600E+02  2.7462277667E+02  1.2701893900E+02 0. 9.
       5    1   16    0  105    0  7.9670303793E+00  7.1648340153E+01  4.3506124889E+01  8.4337305640E+01  4.8000000000E+00 0. 9.
      -5    1   16    0    0  105  7.3341213344E+01  1.0219915402E+01 -4.5953854532E+01  8.7282168809E+01  4.8000000000E+00 0. 9.
       5    1   18    0  106    0 -4.8263504776E+00  9.4694590571E+01 -8.8335789549E+01  1.2967887591E+02  4.8000000000E+00 0. 9.
      -5    1   18    0    0  106 -8.1952843730E+01 -2.0467151973E+00 -1.1943716645E+02  1.4494390076E+02  4.8000000000E+00 0. 9.
</event>
<event>
    18   244  1.000000E+00  9.559120E+02  7.973119E-03  9.320618E-02
      21   -1    0    0  101  102  0.0000000000E+00  0.0000000000E+00  1.3961990999E+03  1.3961990999E+03  0.0000000000E+00 0. 9.
      21   -1    0    0  103  104  0.0000000000E+00  0.0000000000E+00 -7.9705701969E+02  7.9705701969E+02  0.0000000000E+00 0. 9.
 1000021    2    1    2  101  104  3.8320963260E+02 -1.3650017092E+02  7.6339976528E+02  1.2233343322E+03  8.6503512500E+02 0. 9.
 1000021    2    1    2  103  102 -3.8320963260E+02  1.3650017092E+02 -1.6425768503E+02  9.6992178744E+02  8.6503512500E+02 0. 9.
-1000024    2    3    0    0    0  1.7999090688E+02 -1.3182387558E+02  5.1267636485E+02  6.2047670356E+02  2.6903535800E+02 0. 9.
       2    1    3    0  101    0  3.4394155039E+01  2.1604990734E+02 -1.3790289255E+01  2.1920493001E+02  3.3000000000E-01 0. 9.
      -1    1    3    0    0  104  1.6882457068E+02 -2.2072620269E+02  2.6451368969E+02  3.8365269861E+02  3.3000000000E-01 0. 9.
-1000024    2    4    0    0    0 -7.9121033245E+01 -2.7559644594E+02 -1.6743041870E+02  4.2734822789E+02  2.6903535800E+02 0. 9.
       2    1    4    0  103    0 -2.0234578237E+01  5.4904285441E+01 -5.7828113763E+01  8.2268574544E+01  3.3000000000E-01 0. 9.
      -1    1    4    0    0  102 -2.8385402112E+02  3.5719233143E+02  6.1000847434E+01  4.6030498501E+02  3.3000000000E-01 0. 9.
 1000022    1    5    0    0    0  7.6130202081E+01 -2.8854024061E+01  1.2086974776E+02  1.9459944715E+02  1.2896157000E+02 0. 9.
     -24    2    5    0    0    0  1.0386070480E+02 -1.0296985152E+02  3.9180661709E+02  4.2587725640E+02  8.0431188000E+01 0. 9.
 1000022    1    8    0    0    0 -2.3332357321E+01 -4.6366922592E+01 -9.2861939046E+01  1.6717869682E+02  1.2896157000E+02 0. 9.
     -24    2    8    0    0    0 -5.5788675924E+01 -2.2922952335E+02 -7.4568479657E+01  2.6016953107E+02  8.0431188000E+01 0. 9.
       3    1   12    0  105    0  5.7222025548E+01 -3.4116745284E+01  2.7192283417E+02  2.7996533761E+02  5.0000000000E-01 0. 9.
      -4    1   12    0    0  105  4.6638679253E+01 -6.8853106233E+01  1.1988378292E+02  1.4591191880E+02  1.5000000000E+00 0. 9.
       1    1   14    0  106    0 -6.6031280338E+01 -1.5360502032E+02 -2.4715516045E+01  1.6901360266E+02  3.3000000000E-01 0. 9.
      -2    1   14    0    0  106  1.0242604414E+01 -7.5624503028E+01 -4.9852963613E+01  9.1155928411E+01  3.3000000000E-01 0. 9.
</event>
<event>
    20   258  1.000000E+00  1.024860E+03  7.979498E-03  9.247373E-02
       2   -1    0    0  101    0  0.0000000000E+00  0.0000000000E+00  2.5845131444E+03  2.5845131444E+03  0.0000000000E+00 0. 9.
      21   -1    0    0  102  101  0.0000000000E+00  0.0000000000E+00 -4.0731142141E+02  4.0731142141E+02  0.0000000000E+00 0. 9.
 1000002    2    1    2  103    0  1.8091657141E+02  3.8977085536E+02  1.0398321658E+03  1.4996625764E+03  9.9150632100E+02 0. 9.
 1000021    2    1    2  102  103 -1.8091657141E+02 -3.8977085536E+02  1.1373695572E+03  1.4921619894E+03  8.6503512500E+02 0. 9.
 1000021    2    3    0  103  104  2.4128245903E+02  2.5939033444E+02  9.3216336580E+02  1.3201192668E+03  8.6503512500E+02 0. 9.
       2    1    3    0  104    0 -6.0365887620E+01  1.3038052092E+02  1.0766879998E+02  1.7954330958E+02  3.3000000000E-01 0. 9.
-1000024    2    4    0    0    0  1.8462774279E+02 -2.8333247991E+02  2.3594307857E+02  4.9235541813E+02  2.6903535800E+02 0. 9.
       2    1    4    0  102    0 -7.7624264439E+01  5.7244172595E+01  2.7145453848E+02  2.8808001855E+02  3.3000000000E-01 0. 9.
      -1    1    4    0    0  103 -2.8792004976E+02 -1.6368254804E+02  6.2997194017E+02  7.1172655274E+02  3.3000000000E-01 0. 9.
 1000024    2    5    0    0    0  3.0080058069E+01  1.3742724342E+02  2.1303836523E+01  3.0434344815E+02  2.6903535800E+02 0. 9.
      -2    1    5    0    0  104 -6.8102637713E+01 -5.2170500617E+01  6.3491152945E+01  1.0672846762E+02  3.3000000000E-01 0. 9.
       1    1    5    0  103    0  2.7930503867E+02  1.7413359164E+02  8.4736837633E+02  9.0904735106E+02  3.3000000000E-01 0. 9.
 1000022    1    7    0    0    0  1.8191407639E+02 -1.4487934461E+02  1.8632696977E+02  3.2470229732E+02  1.2896157000E+02 0. 9.
     -24    2    7    0    0    0  2.7136663918E+00 -1.3845313530E+02  4.9616108801E+01  1.6765312081E+02  8.0431188000E+01 0. 9.
 1000022    1   10    0    0    0  5.2966745419E+01 -2.0188765728E+00  2.5248678982E+01  1.4169733346E+02  1.2896157000E+02 0. 9.
      24    2   10    0    0    0 -2.2886687350E+01  1.3944611999E+02 -3.9448424583E+00  1.6264611469E+02  8.0431188000E+01 0. 9.
      15    1   14    0    0    0  3.7122624261E+01 -9.1131062824E+01  1.4679538618E+01  9.9506815980E+01  1.7770000000E+00 0. 9.
     -16    1   14    0    0    0 -3.4408957869E+01 -4.7322072478E+01  3.4936570183E+01  6.8146304825E+01  0.0000000000E+00 0. 9.
      -1    1   16    0    0  105  2.7211801501E+01  7.5734132110E+01  7.3599984151E+00  8.0811010289E+01  3.3000000000E-01 0. 9.
       2    1   16    0  105    0 -5.0098488851E+01  6.3711987879E+01 -1.1304840873E+01  8.1835104398E+01  3.3000000000E-01 0. 9.
</event>
<event>
    12   230  1.000000E+00  3.091871E+02  7.871140E-03  1.069330E-01
      -1   -1    0    0    0  101  0.0000000000E+00  0.0000000000E+00  2.4725885293E+02  2.4725885293E+02  0.0000000000E+00 0. 9.
       2   -1    0    0  101    0  0.0000000000E+00  0.0000000000E+00 -3.8678213869E+02  3.8678213869E+02  0.0000000000E+00 0. 9.
 1000023    2    1    2    0    0  1.3657605015E+02  6.7837640513E+01 -7.6123154979E+01  3.1835988134E+02  2.6889276000E+02 0. 9.
 1000024    2    1    2    0    0 -1.3657605015E+02 -6.7837640513E+01 -6.3400130781E+01  3.1568111027E+02  2.6903535800E+02 0. 9.
 1000022    1    3    0    0    0  7.0260307026E+01  9.4640865116E+00 -7.1388512808E+01  1.6356492893E+02  1.2896157000E+02 0. 9.
      25    2    3    0    0    0  6.6315743120E+01  5.8373554001E+01 -4.7346421717E+00  1.5479495242E+02  1.2701893900E+02 0. 9.
 1000022    1    4    0    0    0 -1.4869782190E+02 -9.2583114643E+01 -7.4538659974E+01  2.2993428131E+02  1.2896157000E+02 0. 9.
      24    2    4    0    0    0  1.2121771756E+01  2.4745474130E+01  1.1138529193E+01  8.5746828957E+01  8.0431188000E+01 0. 9.
       5    1    6    0  102    0  4.5115896355E+01  7.7948166519E+00 -6.0772307695E+01  7.6239862625E+01  4.8000000000E+00 0. 9.
      -5    1    6    0    0  102  2.1199846765E+01  5.0578737350E+01  5.6037665523E+01  7.8555089791E+01  4.8000000000E+00 0. 9.
     -13    1    8    0    0    0 -1.1999628626E+01  4.8692633091E+01  5.7318264041E-01  5.0152799592E+01  1.0566000000E-01 0. 9.
      14    1    8    0    0    0  2.4121400381E+01 -2.3947158961E+01  1.0565346553E+01  3.5594029365E+01  0.0000000000E+00 0. 9.
</event>
<event>
     6   247  1.000000E+00  7.127849E+02  7.946349E-03  9.642463E-02
       2   -1    0    0  101    0  0.0000000000E+00  0.0000000000E+00  1.5678088739E+03  1.5678088739E+03  0.0000000000E+00 0. 9.
      21   -1    0    0  102  101  0.0000000000E+00  0.0000000000E+00 -2.4485756272E+02  2.4485756272E+02  0.0000000000E+00 0. 9.
 2000002    2    1    2  102    0  6.1623221082E+01  6.7914119617E+01  8.3387371195E+02  1.2986258413E+03  9.9129912700E+02 0. 9.
 1000022    1    1    2    0    0 -6.1623221082E+01 -6.7914119617E+01  4.8907759921E+02  5.1404059529E+02  1.2896157000E+02 0. 9.
 1000022    1    3    0    0    0  6.6784995059E+01  4.6535352095E+01  1.0602610800E+03  1.0711724506E+03  1.2896157000E+02 0. 9.
       2    1    3    0  102    0 -5.1617739767E+00  2.1378767522E+01 -2.2638736808E+02  2.2745339070E+02  3.3000000000E-01 0. 9.
</event>
<event>
    12   230  1.000000E+00  2.774575E+02  7.861494E-03  1.084654E-01
       2   -1    0    0  101    0  0.0000000000E+00  0.0000000000E+00  9.1191441730E+02  9.1191441730E+02  0.0000000000E+00 0. 9.
      -1   -1    0    0    0  101  0.0000000000E+00  0.0000000000E+00 -8.5616110686E+01  8.5616110686E+01  0.0000000000E+00 0. 9.
 1000024    2    1    2    0    0 -5.7172278746E+01 -3.7044642301E+01  4.7223512840E+02  5.4774721846E+02  2.6903535800E+02 0. 9.
 1000023    2    1    2    0    0  5.7172278746E+01  3.7044642301E+01  3.5406317821E+02  4.4978330952E+02  2.6889276000E+02 0. 9.
 1000022    1    3    0    0    0 -2.3309435959E+01 -8.2066386573E+01  3.9044639464E+02  4.1994963416E+02  1.2896157000E+02 0. 9.
      24    2    3    0    0    0 -3.3862842787E+01  4.5021744272E+01  8.1788733765E+01  1.2779758430E+02  8.0431188000E+01 0. 9.
 1000022    1    4    0    0    0  2.0394798410E+01  5.8509786488E+01  1.9406783859E+02  2.4110735250E+02  1.2896157000E+02 0. 9.
      25    2    4    0    0    0  3.6777480336E+01 -2.1465144188E+01  1.5999533962E+02  2.0867595702E+02  1.2701893900E+02 0. 9.
     -13    1    6    0    0    0 -1.2150224121E+01 -1.9396933561E+01  1.9986301168E+00  2.2975523152E+01  1.0566000000E-01 0. 9.
      14    1    6    0    0    0 -2.1712618666E+01  6.4418677833E+01  7.9790103648E+01  1.0482206115E+02  0.0000000000E+00 0. 9.
       5    1    8    0  102    0  5.7807329617E+01  9.3769757075E+00  1.6062358074E+02  1.7103388472E+02  4.8000000000E+00 0. 9.
      -5    1    8    0    0  102 -2.1029849282E+01 -3.0842119895E+01 -6.2824112484E-01  3.7642072304E+01  4.8000000000E+00 0. 9.
</event>
<event>
    12   230  1.000000E+00  2.970069E+02  7.867557E-03  1.074967E-01
      -1   -1    0    0    0  101  0.0000000000E+00  0.0000000000E+00  6.2236193610E+01  6.2236193610E+01  0.0000000000E+00 0. 9.
       2   -1    0    0  101    0  0.0000000000E+00  0.0000000000E+00 -1.4824540599E+03  1.4824540599E+03  0.0000000000E+00 0. 9.
 1000023    2    1    2    0    0 -1.0106798806E+02 -7.5210844012E+01 -5.4815888434E+02  6.2342031418E+02  2.6889276000E+02 0. 9.
 1000024    2    1    2    0    0  1.0106798806E+02  7.5210844012E+01 -8.7205898199E+02  9.2126993937E+02  2.6903535800E+02 0. 9.
 1000022    1    3    0    0    0 -7.9831960147E+01 -6.9538361090E+01 -3.3653103626E+02  3.7562341571E+02  1.2896157000E+02 0. 9.
      25    2    3    0    0    0 -2.1236027916E+01 -5.6724829215E+00 -2.1162784808E+02  2.4779689847E+02  1.2701893900E+02 0. 9.
 1000022    1    4    0    0    0 -1.8875473540E+01 -7.6508282747E+00 -3.7897077220E+02  4.0083007795E+02  1.2896157000E+02 0. 9.
      24    2    4    0    0    0  1.1994346160E+02  8.2861672286E+01 -4.9308820979E+02  5.2043986142E+02  8.0431188000E+01 0. 9.
     -15    1    6    0    0    0 -1.2186455996E+01  5.1941158942E+01 -4.0530481519E+01  6.7024408712E+01  1.7770000000E+00 0. 9.
      15    1    6    0    0    0 -9.0495719196E+00 -5.7613641863E+01 -1.7109736656E+02  1.8077248976E+02  1.7770000000E+00 0. 9.
      -3    1    8    0    0  102 -2.9152686410E+00  2.5091771278E+01 -1.3777868482E+02  1.4007609278E+02  5.0000000000E-01 0. 9.
       2    1    8    0  102    0  1.2285873024E+02  5.7769901008E+01 -3.5530952497E+02  3.8036376864E+02  3.3000000000E-01 0. 9.
</event>
<event>
    26   271  1.000000E+00  9.961435E+02  7.976893E-03  9.277122E-02
       2   -1    0    0  101    0  0.0000000000E+00  0.0000000000E+00  2.0603110427E+03  2.0603110427E+03  0.0000000000E+00 0. 9.
       2   -1    0    0  102    0  0.0000000000E+00  0.0000000000E+00 -9.6048291687E+02  9.6048291687E+02  0.0000000000E+00 0. 9.
 1000002    2    1    2  101    0 -9.4371803749E+01 -1.7635361943E+01 -5.1655589678E+02  1.1221104324E+03  9.9150632100E+02 0. 9.
 1000002    2    1    2  102    0  9.4371803749E+01  1.7635361943E+01  1.6163840226E+03  1.8986835272E+03  9.9150632100E+02 0. 9.
 1000021    2    3    0  101  103 -8.7935211683E+01 -1.2673286466E+02 -5.0168966286E+02  1.0118162411E+03  8.6503512500E+02 0. 9.
       2    1    3    0  103    0 -6.4365920661E+00  1.0909750271E+02 -1.4866233914E+01  1.1029419126E+02  3.3000000000E-01 0. 9.
 1000021    2    4    0  102  104  2.0193145212E+02  2.0795263832E+01  1.4406309960E+03  1.6926051484E+03  8.6503512500E+02 0. 9.
       2    1    4    0  104    0 -1.0755964837E+02 -3.1599018895E+00  1.7575302658E+02  2.0607837876E+02  3.3000000000E-01 0. 9.
 1000024    2    5    0    0    0  1.8477971100E+02 -1.1725226043E+00 -5.2048284458E+02  6.1435114695E+02  2.6903535800E+02 0. 9.
      -6    2    5    0    0  103 -2.9567738210E+02 -1.3683930487E+02  7.4146745955E+00  3.6905734926E+02  1.7320000000E+02 0. 9.
       5    1    5    0  101    0  2.2962459424E+01  1.1278962816E+01  1.1378507121E+01  2.8407744882E+01  4.8000000000E+00 0. 9.
-1000024    2    7    0    0    0  1.7494835148E+02  2.1160830485E+02  3.4774058632E+02  5.1835175277E+02  2.6903535800E+02 0. 9.
       2    1    7    0  102    0 -1.2642492956E+02 -1.6211671084E+02  9.1407350439E+02  9.3690745065E+02  3.3000000000E-01 0. 9.
      -1    1    7    0    0  104  1.5340803020E+02 -2.8696330180E+01  1.7881690528E+02  2.3734594500E+02  3.3000000000E-01 0. 9.
 1000022    1    9    0    0    0  1.4739090159E+02  6.7201211386E+00 -1.9325333136E+02  2.7522204584E+02  1.2896157000E+02 0. 9.
      24    2    9    0    0    0  3.7388809410E+01 -7.8926437429E+00 -3.2722951322E+02  3.3912910111E+02  8.0431188000E+01 0. 9.
     -24    2   10    0    0    0 -2.1908150968E+02 -1.6344889411E+02 -1.3284834654E+01  2.8523308312E+02  8.0431188000E+01 0. 9.
      -5    1   10    0    0  103 -7.6595872423E+01  2.6609589239E+01  2.0699509250E+01  8.3824266146E+01  4.8000000000E+00 0. 9.
 1000022    1   12    0    0    0  1.9252911946E+02  1.2737518634E+02  2.6534067976E+02  3.7460467537E+02  1.2896157000E+02 0. 9.
     -24    2   12    0    0    0 -1.7580767978E+01  8.4233118510E+01  8.2399906562E+01  1.4374707740E+02  8.0431188000E+01 0. 9.
     -13    1   16    0    0    0  4.7085171862E+01  1.5726813024E+01 -1.1351939131E+02  1.2389919057E+02  1.0566000000E-01 0. 9.
      14    1   16    0    0    0 -9.6963624529E+00 -2.3619456767E+01 -2.1371012191E+02  2.1522991054E+02  0.0000000000E+00 0. 9.
       3    1   17    0  105    0 -1.2179877213E+02 -8.3817509548E+01  3.2582127223E+01  1.5140066318E+02  5.0000000000E-01 0. 9.
      -4    1   17    0    0  105 -9.7282737554E+01 -7.9631384559E+01 -4.5866961877E+01  1.3383241993E+02  1.5000000000E+00 0. 9.
      15    1   20    0    0    0  2.3970627932E+01  2.1126861085E+01  7.0391499633E-02  3.2001530381E+01  1.7770000000E+00 0. 9.
     -16    1   20    0    0    0 -4.1551395910E+01  6.3106257426E+01  8.2329515062E+01  1.1174554702E+02  0.0000000000E+00 0. 9.
</event>
<event>
    12   230  1.000000E+00  4.822795E+02  7.910994E-03  1.010701E-01
      -1   -1    0    0    0  101  0.0000000000E+00  0.0000000000E+00  4.5126099523E+02  4.5126099523E+02  0.0000000000E+00 0. 9.
       2   -1    0    0  101    0  0.0000000000E+00  0.0000000000E+00 -5.7939328452E+02  5.7939328452E+02  0.0000000000E+00 0. 9.
 1000023    2    1    2    0    0 -1.2457517381E+01 -4.0012078580E+02  1.0716124293E+02  4.9400271390E+02  2.6889276000E+02 0. 9.
 1000024    2    1    2    0    0  1.2457517381E+01  4.0012078580E+02 -2.3529353223E+02  5.3665156585E+02  2.6903535800E+02 0. 9.
 1000022    1    3    0    0    0 -4.3195131422E+01 -2.3004531315E+02  7.0753635807E+01  2.7644860101E+02  1.2896157000E+02 0. 9.
      25    2    3    0    0    0  3.0737614041E+01 -1.7007547265E+02  3.6407607125E+01  2.1755411289E+02  1.2701893900E+02 0. 9.
 1000022    1    4    0    0    0  6.1002875034E+00  3.7523041870E+02 -2.0725423427E+02  4.4768346495E+02  1.2896157000E+02 0. 9.
      24    2    4    0    0    0  6.3572298779E+00  2.4890367102E+01 -2.8039297959E+01  8.8968100909E+01  8.0431188000E+01 0. 9.
       5    1    6    0  102    0  4.7486804671E+01 -1.5951457400E+02 -1.0070654503E+01  1.6680633687E+02  4.8000000000E+00 0. 9.
      -5    1    6    0    0  102 -1.6749190631E+01 -1.0560898645E+01  4.6478261628E+01  5.0747776020E+01  4.8000000000E+00 0. 9.
      -3    1    8    0    0  103  3.0828477125E+01 -2.6727570435E+00 -3.9646832989E+01  5.0295725446E+01  5.0000000000E-01 0. 9.
       4    1    8    0  103    0 -2.4471247247E+01  2.7563124146E+01  1.1607535030E+01  3.8672375463E+01  1.5000000000E+00 0. 9.
</event>
<event>
    20   258  1.000000E+00  1.077243E+03  7.984070E-03  9.195649E-02
       1   -1    0    0  101    0  0.0000000000E+00  0.0000000000E+00  2.3212990736E+03  2.3212990736E+03  0.0000000000E+00 0. 9.
      21   -1    0    0  102  101  0.0000000000E+00  0.0000000000E+00 -6.1315739692E+02  6.1315739692E+02  0.0000000000E+00 0. 9.
 1000001    2    1    2  103    0  3.2065489652E+02 -4.3491952818E+02  2.5655133760E+02  1.1603722452E+03  9.9431916400E+02 0. 9.
 1000021    2    1    2  102  103 -3.2065489652E+02  4.3491952818E+02  1.4515903391E+03  1.7740842254E+03  8.6503512500E+02 0. 9.
 1000021    2    3    0  103  104  3.3745115689E+02 -2.7228938894E+02  2.0684116213E+02  9.8948664895E+02  8.6503512500E+02 0. 9.
       1    1    3    0  104    0 -1.6796260374E+01 -1.6263013924E+02  4.9710175464E+01  1.7088559622E+02  3.3000000000E-01 0. 9.
-1000024    2    4    0    0    0 -2.0071053142E+02  2.0647418625E+02  6.5299091624E+02  7.6268831612E+02  2.6903535800E+02 0. 9.
       2    1    4    0  102    0  4.8679665810E+01 -1.5645521850E+02  8.8373088499E+01  1.8616620781E+02  3.3000000000E-01 0. 9.
      -1    1    4    0    0  103 -1.6862403091E+02  3.8490056042E+02  7.1022633435E+02  8.2522970143E+02  3.3000000000E-01 0. 9.
-1000024    2    5    0    0    0  4.8650656795E+02 -2.3652173886E+02 -1.2090652958E+02  6.1614088191E+02  2.6903535800E+02 0. 9.
       2    1    5    0  103    0 -7.3467978517E+01  3.5243446426E+00  6.8688824249E+01  1.0063909951E+02  3.3000000000E-01 0. 9.
      -1    1    5    0    0  104 -7.5587432543E+01 -3.9291994717E+01  2.5905886746E+02  2.7270666753E+02  3.3000000000E-01 0. 9.
 1000022    1    7    0    0    0 -2.0745479991E+02  1.9440084948E+02  5.0576160962E+02  5.9435265339E+02  1.2896157000E+02 0. 9.
     -24    2    7    0    0    0  6.7442684975E+00  1.2073336763E+01  1.4722930662E+02  1.6833566273E+02  8.0431188000E+01 0. 9.
 1000022    1   10    0    0    0  4.2187008859E+02 -2.3723520605E+02 -9.6253609209E+01  5.1004976077E+02  1.2896157000E+02 0. 9.
     -24    2   10    0    0    0  6.4636479359E+01  7.1346718820E-01 -2.4652920369E+01  1.0609112114E+02  8.0431188000E+01 0. 9.
       3    1   14    0  105    0 -7.7364039489E+00 -3.1340854545E+01  3.7792526681E+01  4.9705393899E+01  5.0000000000E-01 0. 9.
      -4    1   14    0    0  105  1.4480672446E+01  4.3414191307E+01  1.0943677993E+02  1.1863026883E+02  1.5000000000E+00 0. 9.
      11    1   16    0    0    0  6.0115825080E+01  1.2316986258E+01 -4.9142730661E+01  7.8616973693E+01  5.1000000000E-04 0. 9.
     -12    1   16    0    0    0  4.5206542788E+00 -1.1603519070E+01  2.4489810292E+01  2.7474147449E+01  0.0000000000E+00 0. 9.
</event>
<event>
    12   226  1.000000E+00  2.809042E+02  7.862593E-03  1.082884E-01
       1   -1    0    0  101    0  0.0000000000E+00  0.0000000000E+00  5.5633469985E+02  5.5633469985E+02  0.0000000000E+00 0. 9.
      -1   -1    0    0    0  101  0.0000000000E+00  0.0000000000E+00 -2.3475864555E+02  2.3475864555E+02  0.0000000000E+00 0. 9.
-1000024    2    1    2    0    0  4.8757312611E+01  6.4419353163E+01  4.0964653501E+02  4.9670658954E+02  2.6903535800E+02 0. 9.
 1000024    2    1    2    0    0 -4.8757312611E+01 -6.4419353163E+01 -8.8070480720E+01  2.9438675586E+02  2.6903535800E+02 0. 9.
 1000022    1    3    0    0    0  1.1170435498E+02  3.2811208574E+01  2.4332230909E+02  2.9898373027E+02  1.2896157000E+02 0. 9.
     -24    2    3    0    0    0 -6.2947042368E+01  3.1608144589E+01  1.6632422592E+02  1.9772285927E+02  8.0431188000E+01 0. 9.
 1000022    1    4    0    0    0 -8.8114237092E+01 -3.1015621241E+01 -1.1342920791E+02  1.9550795197E+02  1.2896157000E+02 0. 9.
      24    2    4    0    0    0  3.9356924481E+01 -3.3403731923E+01  2.5358727186E+01  9.8878803889E+01  8.0431188000E+01 0. 9.
      13    1    6    0    0    0 -1.3590294007E+00 -1.7944348113E+01  7.4116475838E+01  7.6269979316E+01  1.0566000000E-01 0. 9.
     -14    1    6    0    0    0 -6.1588012967E+01  4.9552492702E+01  9.2207750080E+01  1.2145287995E+02  0.0000000000E+00 0. 9.
      -3    1    8    0    0  102  2.1792789145E+01 -1.0341703150E+00  4.9991359733E+01  5.4547055053E+01  5.0000000000E-01 0. 9.
       4    1    8    0  102    0  1.7564135335E+01 -3.2369561608E+01 -2.4632632546E+01  4.4331748837E+01  1.5000000000E+00 0. 9.
</event>
<event>
    30   272  1.000000E+00  1.181670E+03  7.992570E-03  9.101165E-02
       2   -1    0    0  101    0  0.0000000000E+00  0.0000000000E+00  7.7019746221E+02  7.7019746221E+02  0.0000000000E+00 0. 9.
       2   -1    0    0  102    0  0.0000000000E+00  0.0000000000E+00 -2.0402749129E+03  2.0402749129E+03  0.0000000000E+00 0. 9.
 2000002    2    1    2  102    0 -6.1443129740E+02  1.9011558761E+02 -1.6599767601E+02  1.1932723677E+03  9.9129912700E+02 0. 9.
 2000002    2    1    2  101    0  6.1443129740E+02 -1.9011558761E+02 -1.1040797746E+03  1.6172000074E+03  9.9129912700E+02 0. 9.
 1000021    2    3    0  102  103 -6.5787288716E+02  1.2438786020E+02 -1.9140215144E+02  1.1104907143E+03  8.6503512500E+02 0. 9.
       2    1    3    0  103    0  4.3441589761E+01  6.5727727413E+01  2.5404475428E+01  8.2781653424E+01  3.3000000000E-01 0. 9.
 1000021    2    4    0  101  104  4.4379727139E+02 -2.3984769049E+02 -9.7408154013E+02  1.3969980483E+03  8.6503512500E+02 0. 9.
       2    1    4    0  104    0  1.7063402601E+02  4.9732102881E+01 -1.2999823450E+02  2.2020195904E+02  3.3000000000E-01 0. 9.
 1000024    2    5    0    0    0  7.0677053214E+01 -8.2443383633E+01 -9.1266577173E+01  3.0414103524E+02  2.6903535800E+02 0. 9.
      -2    1    5    0    0  103 -6.2008991641E+01  1.1035362312E+02 -1.8723457049E+01  1.2795981371E+02  3.3000000000E-01 0. 9.
       1    1    5    0  102    0 -6.6654094874E+02  9.6477620708E+01 -8.1412117213E+01  6.7838986532E+02  3.3000000000E-01 0. 9.
 1000023    2    7    0    0    0  7.7386520461E+01  2.1514406003E+01 -2.4305911751E+02  3.7125812341E+02  2.6889276000E+02 0. 9.
       6    2    7    0  101    0  2.8448202570E+01 -1.8873573488E-01 -4.5696860270E+02  4.8951800754E+02  1.7320000000E+02 0. 9.
      -6    2    7    0    0  104  3.3796254836E+02 -2.6117336076E+02 -2.7405381992E+02  5.3622191738E+02  1.7320000000E+02 0. 9.
 1000022    1    9    0    0    0  3.4636884739E+01  3.5330060377E+01 -1.6437227718E+01  1.3910138728E+02  1.2896157000E+02 0. 9.
      24    2    9    0    0    0  3.6040168476E+01 -1.1777344401E+02 -7.4829349455E+01  1.6503964797E+02  8.0431188000E+01 0. 9.
 1000022    1   12    0    0    0  7.2183703819E+00 -1.5651656341E+01 -1.2636588129E+02  1.8137392786E+02  1.2896157000E+02 0. 9.
      25    2   12    0    0    0  7.0168150079E+01  3.7166062344E+01 -1.1669323622E+02  1.8988419555E+02  1.2701893900E+02 0. 9.
      24    2   13    0    0    0  3.9578437317E+01  1.9923962705E+01 -1.1697130591E+02  1.4871072389E+02  8.0431188000E+01 0. 9.
       5    1   13    0  101    0 -1.1130234748E+01 -2.0112698440E+01 -3.3999729679E+02  3.4080728364E+02  4.8000000000E+00 0. 9.
     -24    2   14    0    0    0  1.5854509649E+02 -1.0437885469E+02 -1.9855603237E+02  2.8622572722E+02  8.0431188000E+01 0. 9.
      -5    1   14    0    0  104  1.7941745187E+02 -1.5679450607E+02 -7.5497787549E+01  2.4999619016E+02  4.8000000000E+00 0. 9.
     -15    1   16    0    0    0 -2.0172900892E+01 -1.6227111227E+01  1.7119256357E+00  2.6006796949E+01  1.7770000000E+00 0. 9.
      16    1   16    0    0    0  5.6213069367E+01 -1.0154633278E+02 -7.6541275091E+01  1.3903285102E+02  0.0000000000E+00 0. 9.
       5    1   18    0  105    0  1.0187179169E+02  1.6010747502E+01 -5.4378650247E+01  1.1668026217E+02  4.8000000000E+00 0. 9.
      -5    1   18    0    0  105 -3.1703641609E+01  2.1155314842E+01 -6.2314585977E+01  7.3203933384E+01  4.8000000000E+00 0. 9.
      -3    1   19    0    0  106 -6.4612680818E-02 -2.2976333903E+01 -7.0197954917E+01  7.3864192739E+01  5.0000000000E-01 0. 9.
       4    1   19    0  106    0  3.9643049998E+01  4.2900296608E+01 -4.6773350996E+01  7.4846531153E+01  1.5000000000E+00 0. 9.
      13    1   21    0    0    0  1.4387612740E+02 -8.2712313782E+01 -2.0016053301E+02  2.6001137864E+02  1.0566000000E-01 0. 9.
     -14    1   21    0    0    0  1.4668969086E+01 -2.1666540905E+01  1.6045006324E+00  2.6214348573E+01  0.0000000000E+00 0. 9.
</event>
<event>
    12   230  1.000000E+00  3.521863E+02  7.882772E-03  1.051465E-01
       2   -1    0    0  101    0  0.0000000000E+00  0.0000000000E+00  8.1698972128E+02  8.1698972128E+02  0.0000000000E+00 0. 9.
      -1   -1    0    0    0  101  0.0000000000E+00  0.0000000000E+00 -1.6815571142E+02  1.6815571142E+02  0.0000000000E+00 0. 9.
 1000024    2    1    2    0    0 -4.3611389368E+00  2.2732025048E+02  4.7798999563E+02  5.9375750571E+02  2.6903535800E+02 0. 9.
 1000023    2    1    2    0    0  4.3611389368E+00 -2.2732025048E+02  1.7084401423E+02  3.9138792698E+02  2.6889276000E+02 0. 9.
 1000022    1    3    0    0    0 -5.9297256348E+01  5.8326849609E+01  2.5385591906E+02  2.9663462404E+02  1.2896157000E+02 0. 9.
      24    2    3    0    0    0  5.4936117411E+01  1.6899340087E+02  2.2413407657E+02  2.9712288168E+02  8.0431188000E+01 0. 9.
 1000022    1    4    0    0    0  2.9763787279E+01 -1.4581938698E+02  7.4509760535E+01  2.1055157944E+02  1.2896157000E+02 0. 9.
      25    2    4    0    0    0 -2.5402648342E+01 -8.1500863496E+01  9.6334253691E+01  1.8083634754E+02  1.2701893900E+02 0. 9.
      -3    1    6    0    0  102  3.4310193787E+01  9.5194951893E+01  6.4376591470E+01  1.1993274696E+02  5.0000000000E-01 0. 9.
       4    1    6    0  102    0  2.0625923624E+01  7.3798448978E+01  1.5975748510E+02  1.7719013472E+02  1.5000000000E+00 0. 9.
      21    1    8    0  103  104  1.3357373086E+01  2.6189844850E+01  4.8657559579E+01  5.6849674522E+01  0.0000000000E+00 0. 9.
      21    1    8    0  104  103 -3.8760021428E+01 -1.0769070835E+02  4.7676694112E+01  1.2398667302E+02  0.0000000000E+00 0. 9.
</event>
<event>
    22   244  1.000000E+00  8.658200E+02  7.964070E-03  9.426743E-02
      21   -1    0    0  101  102  0.0000000000E+00  0.0000000000E+00  9.3797230276E+02  9.3797230276E+02  0.0000000000E+00 0. 9.
      21   -1    0    0  102  103  0.0000000000E+00  0.0000000000E+00 -8.2339211217E+02  8.2339211217E+02  0.0000000000E+00 0. 9.
 1000021    2    1    2  101  104 -3.4787850375E+01 -1.2176315555E+01  2.0819116465E+02  8.9049861635E+02  8.6503512500E+02 0. 9.
 1000021    2    1    2  104  103  3.4787850375E+01  1.2176315555E+01 -9.3610974048E+01  8.7086579858E+02  8.6503512500E+02 0. 9.
 1000024    2    3    0    0    0 -3.4272241025E+02  6.9562098261E+00  2.4866707674E+00  4.3576742275E+02  2.6903535800E+02 0. 9.
      -6    2    3    0    0  104  2.0480768737E+02  7.9738492787E+00  2.2005451586E+02  3.4703314111E+02  1.7320000000E+02 0. 9.
       5    1    3    0  101    0  1.0312687250E+02 -2.7106374659E+01 -1.4350021979E+01  1.0769805249E+02  4.8000000000E+00 0. 9.
 1000023    2    4    0    0    0 -2.0784345789E+02  1.8808491866E+02  5.1997533650E+01  3.9189526598E+02  2.6889276000E+02 0. 9.
       5    1    4    0  104    0  1.9059140546E+01  4.2817282167E+01 -1.5904330716E+02  1.6587460337E+02  4.8000000000E+00 0. 9.
      -5    1    4    0    0  103  2.2357216772E+02 -2.1872588527E+02  1.3434799459E+01  3.1309592923E+02  4.8000000000E+00 0. 9.
 1000022    1    5    0    0    0 -1.1221937260E+02  6.3989683257E+01  2.4156823688E+01  1.8412633114E+02  1.2896157000E+02 0. 9.
      24    2    5    0    0    0 -2.3050303765E+02 -5.7033473430E+01 -2.1670152921E+01  2.5164109161E+02  8.0431188000E+01 0. 9.
     -24    2    6    0    0    0  1.5099564142E+02 -3.5246356920E+01  8.2753586371E+01  1.9328559560E+02  8.0431188000E+01 0. 9.
      -5    1    6    0    0  104  5.3812045947E+01  4.3220206199E+01  1.3730092949E+02  1.5374754551E+02  4.8000000000E+00 0. 9.
 1000022    1    8    0    0    0 -1.3437819527E+02  7.8742782556E+01  2.1018616415E+00  2.0222123906E+02  1.2896157000E+02 0. 9.
      25    2    8    0    0    0 -7.3465262624E+01  1.0934213610E+02  4.9895672008E+01  1.8967402692E+02  1.2701893900E+02 0. 9.
      -1    1   12    0    0  105 -1.5994748041E+02 -5.1037743280E+01  2.0633270313E+01  1.6915640240E+02  3.3000000000E-01 0. 9.
       2    1   12    0  105    0 -7.0555557238E+01 -5.9957301506E+00 -4.2303423234E+01  8.2484689212E+01  3.3000000000E-01 0. 9.
       3    1   13    0  106    0  6.6613588044E+01  2.3686605830E+01  2.3447861287E+01  7.4488103794E+01  5.0000000000E-01 0. 9.
      -4    1   13    0    0  106  8.4382053379E+01 -5.8932962750E+01  5.9305725084E+01  1.1879749180E+02  1.5000000000E+00 0. 9.
       5    1   16    0  107    0 -7.1127534475E+00 -2.8580751203E+01  9.2710554787E+00  3.1248089072E+01  4.8000000000E+00 0. 9.
      -5    1   16    0    0  107 -6.6352509177E+01  1.3792288730E+02  4.0624616530E+01  1.5842593785E+02  4.8000000000E+00 0. 9.
</event>
<event>
    12   226  1.000000E+00  3.264598E+02  7.875992E-03  1.061799E-01
       1   -1    0    0  101    0  0.0000000000E+00  0.0000000000E+00  9.7131898180E+02  9.7131898180E+02  0.0000000000E+00 0. 9.
      -1   -1    0    0    0  101  0.0000000000E+00  0.0000000000E+00 -1.3691712892E+02  1.3691712892E+02  0.0000000000E+00 0. 9.
-1000024    2    1    2    0    0 -1.8450474823E+02  1.2408324684E+01  1.7024962703E+02  3.6818599647E+02  2.6903535800E+02 0. 9.
 1000024    2    1    2    0    0  1.8450474823E+02 -1.2408324684E+01  6.6415222585E+02  7.4005011424E+02  2.6903535800E+02 0. 9.
 1000022    1    3    0    0    0 -1.3346757777E+02 -2.1775446118E+01  2.1256609001E+01  1.8807098216E+02  1.2896157000E+02 0. 9.
     -24    2    3    0    0    0 -5.1037170464E+01  3.4183770802E+01  1.4899301803E+02  1.8011501431E+02  8.0431188000E+01 0. 9.
 1000022    1    4    0    0    0  1.1842556857E+02 -3.0835675036E+01  5.7469768850E+02  6.0156792954E+02  1.2896157000E+02 0. 9.
      24    2    4    0    0    0  6.6079179662E+01  1.8427350352E+01  8.9454537348E+01  1.3848218471E+02  8.0431188000E+01 0. 9.
       1    1    6    0  102    0 -4.4410813063E+01  8.1330268185E+00  2.1847364147E+01  5.0158575163E+01  3.3000000000E-01 0. 9.
      -2    1    6    0    0  102 -6.6263574004E+00  2.6050743983E+01  1.2714565389E+02  1.2995643915E+02  3.3000000000E-01 0. 9.
      -3    1    8    0    0  103  7.9770158414E+01  1.2066200971E+01  4.6937192464E+01  9.3339281204E+01  5.0000000000E-01 0. 9.
       4    1    8    0  103    0 -1.3690978752E+01  6.3611493812E+00  4.2517344884E+01  4.5142903503E+01  1.5000000000E+00 0. 9.
</event>
<event>
    17   258  1.000000E+00  1.025326E+03  7.979539E-03  9.246898E-02
      21   -1    0    0  101  102  0.0000000000E+00  0.0000000000E+00  7.5744006501E+02  7.5744006501E+02  0.0000000000E+00 0. 9.
       2   -1    0    0  102    0  0.0000000000E+00  0.0000000000E+00 -1.5744168426E+03  1.5744168426E+03  0.0000000000E+00 0. 9.
 1000021    2    1    2  101  103  4.5405172755E+01  4.2842343556E+02  1.6943639698E+01  9.6653045697E+02  8.6503512500E+02 0. 9.
 1000002    2    1    2  103    0 -4.5405172755E+01 -4.2842343556E+02 -8.3392041727E+02  1.3653264506E+03  9.9150632100E+02 0. 9.
 1000023    2    3    0    0    0 -4.4679665814E+01  9.2183279972E+01  1.7858088136E+02  3.3865687238E+02  2.6889276000E+02 0. 9.
       2    1    3    0  101    0  1.1028520811E+02 -1.0142265153E+02 -1.1174543437E+02  1.8691316800E+02  3.3000000000E-01 0. 9.
      -2    1    3    0    0  103 -2.0200369538E+01  4.3766280712E+02 -4.9891807290E+01  4.4096041659E+02  3.3000000000E-01 0. 9.
 1000024    2    4    0    0    0  2.4449347351E+02  1.4218995630E+02 -1.2419714536E+02  4.0963397934E+02  2.6903535800E+02 0. 9.
       1    1    4    0  103    0 -2.8989864626E+02 -5.7061339186E+02 -7.0972327191E+02  9.5569247128E+02  3.3000000000E-01 0. 9.
 1000022    1    5    0    0    0 -5.7917462491E+01  3.1020875475E+01  7.3493407374E+01  1.6232404209E+02  1.2896157000E+02 0. 9.
      25    2    5    0    0    0  1.3237796677E+01  6.1162404497E+01  1.0508747399E+02  1.7633283029E+02  1.2701893900E+02 0. 9.
 1000022    1    8    0    0    0  1.8867628754E+02  1.7372173931E+02 -9.9830502059E+01  3.0393288711E+02  1.2896157000E+02 0. 9.
      24    2    8    0    0    0  5.5817185967E+01 -3.1531783014E+01 -2.4366643300E+01  1.0570109223E+02  8.0431188000E+01 0. 9.
     -15    1   11    0    0    0  3.1433452501E+01  9.0913411544E+01  1.0359684807E+02  1.4138166428E+02  1.7770000000E+00 0. 9.
      15    1   11    0    0    0 -1.8195655824E+01 -2.9751007047E+01  1.4906259190E+00  3.4951166015E+01  1.7770000000E+00 0. 9.
      -1    1   13    0    0  104  5.4031109429E+01  7.5425174229E+00 -3.5428870460E+01  6.5050473613E+01  3.3000000000E-01 0. 9.
       2    1   13    0  104    0  1.7860765386E+00 -3.9074300437E+01  1.1062227160E+01  4.0650618615E+01  3.3000000000E-01 0. 9.
</event>
<event>
    16   259  1.000000E+00  9.541065E+02  7.972946E-03  9.322622E-02
       2   -1    0    0  101    0  0.0000000000E+00  0.0000000000E+00  1.5013427463E+03  1.5013427463E+03  0.0000000000E+00 0. 9.
      21   -1    0    0  102  101  0.0000000000E+00  0.0000000000E+00 -6.2237180329E+02  6.2237180329E+02  0.0000000000E+00 0. 9.
 2000002    2    1    2  103    0 -1.8173404492E+02 -1.0868317199E+02  6.5003494544E+02  1.2041838250E+03  9.9129912700E+02 0. 9.
 1000021    2    1    2  102  103  1.8173404492E+02  1.0868317199E+02  2.2893599757E+02  9.1953072457E+02  8.6503512500E+02 0. 9.
 1000021    2    3    0  103  104 -1.2919401056E+02 -1.0007396084E+02  7.0486835088E+02  1.1277548712E+03  8.6503512500E+02 0. 9.
       2    1    3    0  104    0 -5.2540034360E+01 -8.6092111551E+00 -5.4833405439E+01  7.6428953802E+01  3.3000000000E-01 0. 9.
 1000022    1    4    0    0    0  2.9432650519E+02 -2.6066865411E+02  1.7361109733E+02  4.4871832874E+02  1.2896157000E+02 0. 9.
       2    1    4    0  102    0 -1.9531928176E+02  2.6398238414E+02  7.1928088277E+00  3.2846334098E+02  3.3000000000E-01 0. 9.
      -2    1    4    0    0  103  8.2726821489E+01  1.0536944196E+02  4.8132091412E+01  1.4234905485E+02  3.3000000000E-01 0. 9.
-1000024    2    5    0    0    0 -2.6189287042E+02  1.9103614910E+02  5.0108594071E+02  6.5463717407E+02  2.6903535800E+02 0. 9.
       2    1    5    0  103    0  2.4587910840E+01 -2.0741510648E+02  2.5275593144E+02  3.2788909944E+02  3.3000000000E-01 0. 9.
      -1    1    5    0    0  104  1.0811094903E+02 -8.3695003466E+01 -4.8973521277E+01  1.4522859770E+02  3.3000000000E-01 0. 9.
 1000022    1   10    0    0    0 -2.6305437733E+02  1.4477146127E+02  4.1346583975E+02  5.2701182967E+02  1.2896157000E+02 0. 9.
     -24    2   10    0    0    0  1.1615069086E+00  4.6264687830E+01  8.7620100956E+01  1.2762534440E+02  8.0431188000E+01 0. 9.
      13    1   14    0    0    0  6.2789925589E+00 -1.7340196479E+01 -9.4554130344E-01  1.8466547428E+01  1.0566000000E-01 0. 9.
     -14    1   14    0    0    0 -5.1174856502E+00  6.3604884310E+01  8.8565642260E+01  1.0915879697E+02  0.0000000000E+00 0. 9.
</event>
<event>
    12   226  1.000000E+00  2.707038E+02  7.859303E-03  1.088203E-01
      -2   -1    0    0    0  101  0.0000000000E+00  0.0000000000E+00  1.2111355039E+02  1.2111355039E+02  0.0000000000E+00 0. 9.
       2   -1    0    0  101    0  0.0000000000E+00  0.0000000000E+00 -6.6068338994E+02  6.6068338994E+02  0.0000000000E+00 0. 9.
-1000024    2    1    2    0    0 -2.9951336218E+01 -1.8546812025E+00 -3.8321010426E+02  4.6918070106E+02  2.6903535800E+02 0. 9.
 1000024    2    1    2    0    0  2.9951336218E+01  1.8546812025E+00 -1.5635973528E+02  3.1261623927E+02  2.6903535800E+02 0. 9.
 1000022    1    3    0    0    0 -9.7671019293E+01 -2.3134407024E+01 -2.2945081338E+02  2.8169769452E+02  1.2896157000E+02 0. 9.
     -24    2    3    0    0    0  6.7719683075E+01  2.1279725822E+01 -1.5375929088E+02  1.8748300654E+02  8.0431188000E+01 0. 9.
 1000022    1    4    0    0    0  9.2429683692E+01 -3.1733833933E+01 -1.1074498343E+02  1.9607605804E+02  1.2896157000E+02 0. 9.
      24    2    4    0    0    0 -6.2478347473E+01  3.3588515135E+01 -4.5614751845E+01  1.1654018123E+02  8.0431188000E+01 0. 9.
      11    1    6    0    0    0  4.6952478192E+01  4.9721746772E+01 -7.6715237679E+01  1.0277166440E+02  5.1000000000E-04 0. 9.
     -12    1    6    0    0    0  2.0767204883E+01 -2.8442020950E+01 -7.7044053202E+01  8.4711342146E+01  0.0000000000E+00 0. 9.
      -1    1    8    0    0  102 -3.7076399989E+01 -1.1097916448E+01  1.0837295146E+01  4.0191778409E+01  3.3000000000E-01 0. 9.
       2    1    8    0  102    0 -2.5401947485E+01  4.4686431583E+01 -5.6452046992E+01  7.6348402820E+01  3.3000000000E-01 0. 9.
</event>
<event>
    12   230  1.000000E+00  2.862861E+02  7.864283E-03  1.080176E-01
       2   -1    0    0  101    0  0.0000000000E+00  0.0000000000E+00  8.6644585994E+02  8.6644585994E+02  0.0000000000E+00 0. 9.
      -1   -1    0    0    0  101  0.0000000000E+00  0.0000000000E+00 -1.0782337005E+02  1.0782337005E+02  0.0000000000E+00 0. 9.
 1000024    2    1    2    0    0 -8.5956772594E+01 -4.7217751338E+01  2.0875027816E+02  3.5436532743E+02  2.6903535800E+02 0. 9.
 1000023    2    1    2    0    0  8.5956772594E+01  4.7217751338E+01  5.4987221173E+02  6.1990390256E+02  2.6889276000E+02 0. 9.
 1000022    1    3    0    0    0 -1.3440055207E+02 -1.5473480709E+01  1.2821666094E+02  2.2665730891E+02  1.2896157000E+02 0. 9.
      24    2    3    0    0    0  4.8443779479E+01 -3.1744270629E+01  8.0533617218E+01  1.2770801852E+02  8.0431188000E+01 0. 9.
 1000022    1    4    0    0    0  4.2968898399E+01  1.7727749254E+01  3.6294668986E+02  3.8797162981E+02  1.2896157000E+02 0. 9.
      25    2    4    0    0    0  4.2987874194E+01  2.9490002084E+01  1.8692552188E+02  2.3193227275E+02  1.2701893900E+02 0. 9.
      -3    1    6    0    0  102  3.9066725541E+01 -5.3909188150E+01  7.9327902713E+01  1.0356435565E+02  5.0000000000E-01 0. 9.
       4    1    6    0  102    0  9.3770539379E+00  2.2164917522E+01  1.2057145045E+00  2.4143662870E+01  1.5000000000E+00 0. 9.
       5    1    8    0  103    0 -1.4587432764E+00 -5.0789140447E+00 -1.7996599443E+01  1.9360808127E+01  4.8000000000E+00 0. 9.
      -5    1    8    0    0  103  4.4446617471E+01  3.4568916129E+01  2.0492212132E+02  2.1257146463E+02  4.8000000000E+00 0. 9.
</event>
<event>
    11   237  1.000000E+00  7.289510E+02  7.948388E-03  9.617087E-02
       2   -1    0    0  101    0  0.0000000000E+00  0.0000000000E+00  1.5776458682E+03  1.5776458682E+03  0.0000000000E+00 0. 9.
      -2   -1    0    0    0  102  0.0000000000E+00  0.0000000000E+00 -3.0787151906E+02  3.0787151906E+02  0.0000000000E+00 0. 9.
 1000021    2    1    2  101  102  2.9104337365E+02 -2.5338694389E+02  6.6782219242E+02  1.1589579099E+03  8.6503512500E+02 0. 9.
 1000022    1    1    2    0    0 -2.9104337365E+02  2.5338694389E+02  6.0195215672E+02  7.2655947740E+02  1.2896157000E+02 0. 9.
 1000024    2    3    0    0    0  3.9233013842E+02  6.1393229224E+01  2.5621481987E+02  5.4379970934E+02  2.6903535800E+02 0. 9.
      -2    1    3    0    0  102 -1.7943662371E+02 -3.0266099626E+02  2.3915473234E+02  4.2543657046E+02  3.3000000000E-01 0. 9.
       1    1    3    0  101    0  7.8149858940E+01 -1.2119176858E+01  1.7245264022E+02  1.8972163008E+02  3.3000000000E-01 0. 9.
 1000022    1    5    0    0    0  1.2696856097E+02 -3.8264816309E+01  1.0194392165E+02  2.1120809961E+02  1.2896157000E+02 0. 9.
      24    2    5    0    0    0  2.6536157744E+02  9.9658045533E+01  1.5427089822E+02  3.3259160973E+02  8.0431188000E+01 0. 9.
      -1    1    9    0    0  103  8.6393740184E+01  6.9070878276E+01  3.7843783391E+01  1.1690562608E+02  3.3000000000E-01 0. 9.
       2    1    9    0  103    0  1.7896783726E+02  3.0587167257E+01  1.1642711483E+02  2.1568598365E+02  3.3000000000E-01 0. 9.
</event>
<event>
    12   226  1.000000E+00  2.901723E+02  7.865483E-03  1.078260E-01
       2   -1    0    0  101    0  0.0000000000E+00  0.0000000000E+00  1.2746392106E+03  1.2746392106E+03  0.0000000000E+00 0. 9.
      -2   -1    0    0    0  101  0.0000000000E+00  0.0000000000E+00 -6.6072800414E+01  6.6072800414E+01  0.0000000000E+00 0. 9.
 1000024    2    1    2    0    0 -1.5313812378E+01  1.0763559690E+02  6.1435828353E+02  6.7943804645E+02  2.6903535800E+02 0. 9.
-1000024    2    1    2    0    0  1.5313812378E+01 -1.0763559690E+02  5.9420812666E+02  6.6127396457E+02  2.6903535800E+02 0. 9.
 1000022    1    3    0    0    0  2.7566507222E+01  5.5104599618E+01  5.1596336168E+02  5.3539303913E+02  1.2896157000E+02 0. 9.
      24    2    3    0    0    0 -4.2880319600E+01  5.2530997285E+01  9.8394921854E+01  1.4404500732E+02  8.0431188000E+01 0. 9.
 1000022    1    4    0    0    0  7.8607879214E+01 -6.0623262150E+01  4.4847410434E+02  4.7708960100E+02  1.2896157000E+02 0. 9.
     -24    2    4    0    0    0 -6.3294066836E+01 -4.7012334753E+01  1.4573402233E+02  1.8418436357E+02  8.0431188000E+01 0. 9.
      -1    1    6    0    0  102 -1.6518236886E+01  4.5128498952E+00 -1.1927574747E+01  2.0870886501E+01  3.3000000000E-01 0. 9.
       2    1    6    0  102    0 -2.6362082714E+01  4.8018147390E+01  1.1032249660E+02  1.2317412082E+02  3.3000000000E-01 0. 9.
      15    1    8    0    0    0 -6.2226845204E+01 -6.5259054730E+01  1.3676276087E+02  1.6382348726E+02  1.7770000000E+00 0. 9.
     -16    1    8    0    0    0 -1.0672216328E+00  1.8246719977E+01  8.9712614634E+00  2.0360876312E+01  0.0000000000E+00 0. 9.
</event>
<event>
    12   230  1.000000E+00  3.165230E+02  7.873232E-03  1.066068E-01
      -2   -1    0    0    0  101  0.0000000000E+00  0.0000000000E+00  6.9563777681E+02  6.9563777681E+02  0.0000000000E+00 0. 9.
       1   -1    0    0  101    0  0.0000000000E+00  0.0000000000E+00 -1.4600182975E+02  1.4600182975E+02  0.0000000000E+00 0. 9.
-1000024    2    1    2    0    0 -1.2631661383E+02  1.0903775212E+02  2.2585954192E+02  3.8889288352E+02  2.6903535800E+02 0. 9.
 1000023    2    1    2    0    0  1.2631661383E+02 -1.0903775212E+02  3.2377640514E+02  4.5274672304E+02  2.6889276000E+02 0. 9.
 1000022    1    3    0    0    0  6.4945362117E+00  7.9342662841E+00  7.1995364432E+01  1.4805252655E+02  1.2896157000E+02 0. 9.
     -24    2    3    0    0    0 -1.3281115005E+02  1.0110348583E+02  1.5386417749E+02  2.4084035696E+02  8.0431188000E+01 0. 9.
 1000022    1    4    0    0    0  7.0204444667E+01 -9.7495394060E+01  1.9737433087E+02  2.6461619175E+02  1.2896157000E+02 0. 9.
      25    2    4    0    0    0  5.6112169167E+01 -1.1542358056E+01  1.2640207427E+02  1.8813053129E+02  1.2701893900E+02 0. 9.
      11    1    6    0    0    0 -9.6738680041E+01  1.1155092629E+02  1.2535520013E+02  1.9369023613E+02  5.1000000000E-04 0. 9.
     -12    1    6    0    0    0 -3.6072470005E+01 -1.0447440458E+01  2.8508977358E+01  4.7150120831E+01  0.0000000000E+00 0. 9.
       5    1    8    0  102    0  2.5942618507E+01  5.6833804615E+01  7.2698967351E+01  9.5975416935E+01  4.8000000000E+00 0. 9.
      -5    1    8    0    0  102  3.0169550660E+01 -6.8376162671E+01  5.3703106920E+01  9.2155114353E+01  4.8000000000E+00 0. 9.
</event>
<event>
    12   226  1.000000E+00  3.109138E+02  7.871637E-03  1.068553E-01
      -2   -1    0    0    0  101  0.0000000000E+00  0.0000000000E+00  1.9257067808E+02  1.9257067808E+02  0.0000000000E+00 0. 9.
       2   -1    0    0  101    0  0.0000000000E+00  0.0000000000E+00 -8.8999223483E+02  8.8999223483E+02  0.0000000000E+00 0. 9.
-1000024    2    1    2    0    0  2.1143348483E+01 -1.5440318352E+02  8.6858786975E+00  3.1103513083E+02  2.6903535800E+02 0. 9.
 1000024    2    1    2    0    0 -2.1143348483E+01  1.5440318352E+02 -7.0610743545E+02  7.7152778208E+02  2.6903535800E+02 0. 9.
 1000022    1    3    0    0    0  1.4492138214E+01  7.4238566356E+00 -1.2060294907E-01  1.2998552535E+02  1.2896157000E+02 0. 9.
     -24    2    3    0    0    0  6.6512102690E+00 -1.6182704015E+02  8.8064816465E+00  1.8104960548E+02  8.0431188000E+01 0. 9.
 1000022    1    4    0    0    0 -7.3682048817E+01  9.2012766264E+01 -2.7787819420E+02  3.2824193946E+02  1.2896157000E+02 0. 9.
      24    2    4    0    0    0  5.2538700334E+01  6.2390417254E+01 -4.2822924126E+02  4.4328584262E+02  8.0431188000E+01 0. 9.
       1    1    6    0  102    0  1.6796458686E+01 -7.9223740093E+00 -1.6383427532E+01  2.4767128054E+01  3.3000000000E-01 0. 9.
      -2    1    6    0    0  102 -1.0145248417E+01 -1.5390466614E+02  2.5189909178E+01  1.5628247743E+02  3.3000000000E-01 0. 9.
      -3    1    8    0    0  103  2.2897796619E+01  7.5595225680E-01 -2.6912238559E+02  2.7009625873E+02  5.0000000000E-01 0. 9.
       4    1    8    0  103    0  2.9640903715E+01  6.1634464998E+01 -1.5910685567E+02  1.7318958389E+02  1.5000000000E+00 0. 9.
</event>
<event>
    12   230  1.000000E+00  3.263516E+02  7.875962E-03  1.061844E-01
       2   -1    0    0  101    0  0.0000000000E+00  0.0000000000E+00  2.2132193350E+02  2.2132193350E+02  0.0000000000E+00 0. 9.
      -1   -1    0    0    0  101  0.0000000000E+00  0.0000000000E+00 -5.9539910549E+02  5.9539910549E+02  0.0000000000E+00 0. 9.
 1000024    2    1    2    0    0 -5.3714801226E+01  1.7685708881E+02 -8.2418109964E+00  3.2651441168E+02  2.6903535800E+02 0. 9.
 1000023    2    1    2    0    0  5.3714801226E+01 -1.7685708881E+02 -3.6583536099E+02  4.9020662732E+02  2.6889276000E+02 0. 9.
 1000022    1    3    0    0    0  1.0763048201E+01  5.3070177075E+01  5.9194319323E+01  1.5187936291E+02  1.2896157000E+02 0. 9.
      24    2    3    0    0    0 -6.4477849427E+01  1.2378691173E+02 -6.7436130320E+01  1.7463504877E+02  8.0431188000E+01 0. 9.
 1000022    1    4    0    0    0 -4.3810710832E+01 -1.0052009732E+02 -1.5721017187E+02  2.3101903174E+02  1.2896157000E+02 0. 9.
      23    2    4    0    0    0  9.7525512058E+01 -7.6336991488E+01 -2.0862518912E+02  2.5918759558E+02  9.1187600000E+01 0. 9.
      -3    1    6    0    0  102 -4.6889663409E+01  1.3309363195E+02 -5.8136670615E+01  1.5261938890E+02  5.0000000000E-01 0. 9.
       4    1    6    0  102    0 -1.7588186017E+01 -9.3067202133E+00 -9.2994597045E+00  2.2015659865E+01  1.5000000000E+00 0. 9.
      15    1    8    0    0    0  5.6460367012E+01 -4.6667680336E+01 -4.0783482160E+01  8.3857591053E+01  1.7770000000E+00 0. 9.
     -15    1    8    0    0    0  4.1065145047E+01 -2.9669311152E+01 -1.6784170696E+02  1.7533000453E+02  1.7770000000E+00 0. 9.
</event>
<event>
    20   259  1.000000E+00  1.121096E+03  7.987733E-03  9.154663E-02
       1   -1    0    0  101    0  0.0000000000E+00  0.0000000000E+00  1.7476608285E+03  1.7476608285E+03  0.0000000000E+00 0. 9.
      21   -1    0    0  102  101  0.0000000000E+00  0.0000000000E+00 -9.0707554378E+02  9.0707554378E+02  0.0000000000E+00 0. 9.
 2000001    2    1    2  103    0 -3.9796381879E+02 -4.8228365392E+02  1.0420358631E+03  1.5685315910E+03  9.9170554500E+02 0. 9.
 1000021    2    1    2  102  103  3.9796381879E+02  4.8228365392E+02 -2.0145057839E+02  1.0862047813E+03  8.6503512500E+02 0. 9.
 1000021    2    3    0  103  104 -3.8696899884E+02 -3.8617955690E+02  7.7247460595E+02  1.2821397898E+03  8.6503512500E+02 0. 9.
       1    1    3    0  104    0 -1.0994819947E+01 -9.6104097021E+01  2.6956125715E+02  2.8639180118E+02  3.3000000000E-01 0. 9.
-1000024    2    4    0    0    0  3.6918914104E+02  4.0917972785E+02 -4.0868420991E+01  6.1463722896E+02  2.6903535800E+02 0. 9.
       4    1    4    0  102    0 -1.4348348929E+02 -2.0451986530E+01  7.6540722759E+01  1.6391012078E+02  1.5000000000E+00 0. 9.
      -3    1    4    0    0  103  1.7225816705E+02  9.3555912602E+01 -2.3712288016E+02  3.0765743156E+02  5.0000000000E-01 0. 9.
 1000023    2    5    0    0    0  1.7474751823E+02  1.5097412396E+01  3.0410446592E+02  4.4220749605E+02  2.6889276000E+02 0. 9.
       1    1    5    0  103    0 -4.8576715235E+02 -3.5040396588E+02  3.6273509033E+02  7.0023533206E+02  3.3000000000E-01 0. 9.
      -1    1    5    0    0  104 -7.5949364720E+01 -5.0873003411E+01  1.0563504970E+02  1.3969696168E+02  3.3000000000E-01 0. 9.
 1000022    1    7    0    0    0  2.7547231149E+02  3.1557865355E+02 -9.8631623527E+01  4.4925957383E+02  1.2896157000E+02 0. 9.
     -24    2    7    0    0    0  9.3716829544E+01  9.3601074292E+01  5.7763202536E+01  1.6537765514E+02  8.0431188000E+01 0. 9.
 1000022    1   10    0    0    0  3.3039080228E+01  5.0736521475E+01  9.4711009149E+01  1.7107611530E+02  1.2896157000E+02 0. 9.
      23    2   10    0    0    0  1.4170843800E+02 -3.5639109079E+01  2.0939345677E+02  2.7113138075E+02  9.1187600000E+01 0. 9.
       3    1   14    0  105    0  4.7249776011E+01  6.2060524297E+01  7.3352685724E+01  1.0707435039E+02  5.0000000000E-01 0. 9.
      -4    1   14    0    0  105  4.6467053533E+01  3.1540549995E+01 -1.5589483188E+01  5.8303304745E+01  1.5000000000E+00 0. 9.
      12    1   16    0    0    0  1.1530312496E+02 -3.0325328654E+01  9.1741997498E+01  1.5043613359E+02  0.0000000000E+00 0. 9.
     -12    1   16    0    0    0  2.6405313038E+01 -5.3137804251E+00  1.1765145927E+02  1.2069524717E+02  0.0000000000E+00 0. 9.
</event>
<event>
    20   259  1.000000E+00  9.817106E+02  7.975557E-03  9.292474E-02
       1   -1    0    0  101    0  0.0000000000E+00  0.0000000000E+00  1.3964749304E+03  1.3964749304E+03  0.0000000000E+00 0. 9.
      21   -1    0    0  102  101  0.0000000000E+00  0.0000000000E+00 -8.2312698321E+02  8.2312698321E+02  0.0000000000E+00 0. 9.
 2000001    2    1    2  103    0  1.2064285485E+02 -2.8864872545E+02 -1.4835231791E+02  1.0504099597E+03  9.9170554500E+02 0. 9.
 1000021    2    1    2  102  103 -1.2064285485E+02  2.8864872545E+02  7.2170026513E+02  1.1691919540E+03  8.6503512500E+02 0. 9.
 1000021    2    3    0  103  104  8.1637906097E+01 -1.6469612719E+02 -4.6973802423E+01  8.8559689906E+02  8.6503512500E+02 0. 9.
       1    1    3    0  104    0  3.9004948748E+01 -1.2395259826E+02 -1.0137851548E+02  1.6481306060E+02  3.3000000000E-01 0. 9.
-1000024    2    4    0    0    0 -2.4449528995E+02  2.8142406614E+02  5.6039086431E+02  7.2484163544E+02  2.6903535800E+02 0. 9.
       4    1    4    0  102    0  2.3319742019E+02 -3.6949589230E+01 -1.0056935696E+01  2.3632541311E+02  1.5000000000E+00 0. 9.
      -3    1    4    0    0  103 -1.0934498508E+02  4.4174248533E+01  1.7136633652E+02  2.0802490545E+02  5.0000000000E-01 0. 9.
 1000023    2    5    0    0    0  5.4868654142E+01 -1.7180249167E+02 -1.5708855209E+02  3.5987052523E+02  2.6889276000E+02 0. 9.
       4    1    5    0  103    0 -2.2679485828E+02 -2.2720718213E+00 -4.0866272177E+01  2.3046338593E+02  1.5000000000E+00 0. 9.
      -4    1    5    0    0  104  2.5356411024E+02  9.3784363012E+00  1.5098102184E+02  2.9526298790E+02  1.5000000000E+00 0. 9.
 1000022    1    7    0    0    0 -2.2562934077E+02  2.1517288353E+02  3.3326349574E+02  4.7424003769E+02  1.2896157000E+02 0. 9.
     -24    2    7    0    0    0 -1.8865949177E+01  6.6251182617E+01  2.2712736857E+02  2.5060159775E+02  8.0431188000E+01 0. 9.
 1000022    1   10    0    0    0  6.2312793092E+01 -1.0317267953E+02 -6.3194120267E+01  1.8748885129E+02  1.2896157000E+02 0. 9.
      25    2   10    0    0    0 -7.4441389498E+00 -6.8629812141E+01 -9.3894431819E+01  1.7238167394E+02  1.2701893900E+02 0. 9.
       3    1   14    0  105    0  3.1761098207E+01  2.6564088437E+01  9.5355862225E+01  1.0395868706E+02  5.0000000000E-01 0. 9.
      -4    1   14    0    0  105 -5.0627047384E+01  3.9687094180E+01  1.3177150635E+02  1.4664291069E+02  1.5000000000E+00 0. 9.
      21    1   16    0  106  107 -5.0818831445E+01 -4.8579124728E+01 -3.8073711952E+00  7.0405831180E+01  0.0000000000E+00 0. 9.
      21    1   16    0  107  106  4.3374692495E+01 -2.0050687413E+01 -9.0087060623E+01  1.0197584276E+02  0.0000000000E+00 0. 9.
</event>
<event>
    12   226  1.000000E+00  4.303481E+02  7.900743E-03  1.025104E-01
      -3   -1    0    0    0  101  0.0000000000E+00  0.0000000000E+00  8.0101977608E+02  8.0101977608E+02  0.0000000000E+00 0. 9.
       3   -1    0    0  101    0  0.0000000000E+00  0.0000000000E+00 -2.3278746076E+02  2.3278746076E+02  0.0000000000E+00 0. 9.
 1000024    2    1    2    0    0  2.2058506455E+02  2.5330165971E+02  3.2673870625E+02  5.4033110916E+02  2.6903535800E+02 0. 9.
-1000024    2    1    2    0    0 -2.2058506455E+02 -2.5330165971E+02  2.4149360907E+02  4.9347612768E+02  2.6903535800E+02 0. 9.
 1000022    1    3    0    0    0  7.4094602483E+01  1.0593042054E+02  2.3921387882E+02  3.0094124089E+02  1.2896157000E+02 0. 9.
      24    2    3    0    0    0  1.4649046207E+02  1.4737123917E+02  8.7524827428E+01  2.3938986827E+02  8.0431188000E+01 0. 9.
 1000022    1    4    0    0    0 -6.7365631293E+01 -9.8787261928E+01  1.8387396630E+02  2.5443618732E+02  1.2896157000E+02 0. 9.
     -24    2    4    0    0    0 -1.5321943326E+02 -1.5451439778E+02  5.7619642763E+01  2.3903994035E+02  8.0431188000E+01 0. 9.
      -1    1    6    0    0  102 -8.0976735062E+00  3.3105501833E+00  1.2287261348E+01  1.5087006004E+01  3.3000000000E-01 0. 9.
       2    1    6    0  102    0  1.5458813557E+02  1.4406068899E+02  7.5237566080E+01  2.2430286227E+02  3.3000000000E-01 0. 9.
      11    1    8    0    0    0 -4.9722902050E+01 -1.0099697096E+02  4.7174422052E+01  1.2205810595E+02  5.1000000000E-04 0. 9.
     -12    1    8    0    0    0 -1.0349653121E+02 -5.3517426822E+01  1.0445220711E+01  1.1698183441E+02  0.0000000000E+00 0. 9.
</event>
<event>
    12   230  1.000000E+00  3.401565E+02  7.879664E-03  1.056175E-01
      -1   -1    0    0    0  101  0.0000000000E+00  0.0000000000E+00  7.5830294424E+01  7.5830294424E+01  0.0000000000E+00 0. 9.
       2   -1    0    0  101    0  0.0000000000E+00  0.0000000000E+00 -1.5448118715E+03  1.5448118715E+03  0.0000000000E+00 0. 9.
 1000023    2    1    2    0    0  1.6260573590E+02  1.3009278368E+02 -6.4461865346E+02  7.2883556615E+02  2.6889276000E+02 0. 9.
 1000024    2    1    2    0    0 -1.6260573590E+02 -1.3009278368E+02 -8.2436292360E+02  8.9180659976E+02  2.6903535800E+02 0. 9.
 1000022    1    3    0    0    0  4.6429336242E+01  8.7011421925E+01 -2.9262152282E+02  3.3464176811E+02  1.2896157000E+02 0. 9.
      25    2    3    0    0    0  1.1617639966E+02  4.3081361755E+01 -3.5199713064E+02  3.9419379804E+02  1.2701893900E+02 0. 9.
 1000022    1    4    0    0    0 -7.3458521412E+01 -1.1996071586E+02 -6.6607866194E+02  6.9287704403E+02  1.2896157000E+02 0. 9.
      24    2    4    0    0    0 -8.9147214491E+01 -1.0132067824E+01 -1.5828426166E+02  1.9892955573E+02  8.0431188000E+01 0. 9.
       5    1    6    0  102    0  2.1911207686E+01  4.7631253317E+01 -3.4531703957E+01  6.2962813573E+01  4.8000000000E+00 0. 9.
      -5    1    6    0    0  102  9.4265191975E+01 -4.5498915624E+00 -3.1746542668E+02  3.3123098447E+02  4.8000000000E+00 0. 9.
      -1    1    8    0    0  103 -4.2717342486E+01 -1.8014098915E+01 -1.5985687218E+01  4.9040087731E+01  3.3000000000E-01 0. 9.
       2    1    8    0  103    0 -4.6429872004E+01  7.8820310912E+00 -1.4229857444E+02  1.4988946800E+02  3.3000000000E-01 0. 9.
</event>
<event>
    22   272  1.000000E+00  1.025280E+03  7.979535E-03  9.246945E-02
       3   -1    0    0  101    0  0.0000000000E+00  0.0000000000E+00  7.0625112154E+02  7.0625112154E+02  0.0000000000E+00 0. 9.
       1   -1    0    0  102    0  0.0000000000E+00  0.0000000000E+00 -1.4908306222E+03  1.4908306222E+03  0.0000000000E+00 0. 9.
 2000003    2    1    2  102    0  6.7182907068E+01 -2.5140532367E+02 -4.3646668115E+02  1.1143164862E+03  9.9170554500E+02 0. 9.
 2000001    2    1    2  101    0 -6.7182907068E+01  2.5140532367E+02 -3.4811281954E+02  1.0827652575E+03  9.9170554500E+02 0. 9.
 1000021    2    3    0  102  103 -5.0790799380E+01 -2.6275104177E+02 -3.6772702122E+02  9.7730586045E+02  8.6503512500E+02 0. 9.
       3    1    3    0  103    0  1.1797370645E+02  1.1345718099E+01 -6.8739659929E+01  1.3701062579E+02  5.0000000000E-01 0. 9.
 1000021    2    4    0  101  104  4.9970653207E+01  1.7132602327E+02 -2.9419436358E+02  9.3095959283E+02  8.6503512500E+02 0. 9.
       1    1    4    0  104    0 -1.1715356027E+02  8.0079300409E+01 -5.3918455959E+01  1.5180566469E+02  3.3000000000E-01 0. 9.
-1000024    2    5    0    0    0 -1.8922777252E+01  2.8758630019E+01 -3.3158537979E+02  4.2838536185E+02  2.6903535800E+02 0. 9.
       2    1    5    0  102    0  1.2337116400E+02 -2.4773738335E+02  1.3994559922E+02  3.1012761060E+02  3.3000000000E-01 0. 9.
      -1    1    5    0    0  103 -1.5523918613E+02 -4.3772288446E+01 -1.7608724064E+02  2.3879288801E+02  3.3000000000E-01 0. 9.
 1000024    2    7    0    0    0  1.0507610429E+02  2.3423396297E+02 -2.5236626477E+02  4.4941661356E+02  2.6903535800E+02 0. 9.
      -4    1    7    0    0  104 -7.4541844546E+01  5.2028394473E+01 -2.3720628173E+02  2.5403249892E+02  1.5000000000E+00 0. 9.
       3    1    7    0  101    0  1.9436393464E+01 -1.1493633418E+02  1.9537818291E+02  2.2751048034E+02  5.0000000000E-01 0. 9.
 1000022    1    9    0    0    0  6.2469230330E+01  5.5526910463E+01 -1.9125725825E+02  2.4534886976E+02  1.2896157000E+02 0. 9.
     -24    2    9    0    0    0 -8.1392007583E+01 -2.6768280444E+01 -1.4032812154E+02  1.8303649209E+02  8.0431188000E+01 0. 9.
 1000022    1   12    0    0    0  8.1414922457E+01  6.3779709675E+01 -1.8443973268E+02  2.4767991944E+02  1.2896157000E+02 0. 9.
      24    2   12    0    0    0  2.3661181832E+01  1.7045425330E+02 -6.7926532083E+01  2.0173669412E+02  8.0431188000E+01 0. 9.
      11    1   16    0    0    0 -8.0957943168E+01 -2.1612216463E+01 -1.5014231076E+02  1.7194182139E+02  5.1000000000E-04 0. 9.
     -12    1   16    0    0    0 -4.3406441446E-01 -5.1560639810E+00  9.8141892212E+00  1.1094670692E+01  0.0000000000E+00 0. 9.
      -3    1   18    0    0  105  7.8614062124E-02  3.6841093105E+01 -5.3951705912E+01  6.5332295935E+01  5.0000000000E-01 0. 9.
       4    1   18    0  105    0  2.3582567770E+01  1.3361316019E+02 -1.3974826171E+01  1.3640439819E+02  1.5000000000E+00 0. 9.
</event>
<event>
    16   259  1.000000E+00  1.080041E+03  7.984308E-03  9.192973E-02
      21   -1    0    0  101  102  0.0000000000E+00  0.0000000000E+00  1.2296113943E+03  1.2296113943E+03  0.0000000000E+00 0. 9.
       2   -1    0    0  102    0  0.0000000000E+00  0.0000000000E+00 -9.4758579512E+02  9.4758579512E+02  0.0000000000E+00 0. 9.
 1000021    2    1    2  101  103 -1.6613150905E+02 -5.2288624241E+02  9.3334630826E+01  1.0285945856E+03  8.6503512500E+02 0. 9.
 2000002    2    1    2  103    0  1.6613150905E+02  5.2288624241E+02  1.8869096840E+02  1.1486026038E+03  9.9129912700E+02 0. 9.
 1000024    2    3    0    0    0 -2.8219197869E+02  1.5814269908E+01  3.2374998864E+01  3.9154893484E+02  2.6903535800E+02 0. 9.
      -4    1    3    0    0  103 -2.9935669260E+01  2.1877779331E+01  4.3946085067E+01  5.7517735658E+01  1.5000000000E+00 0. 9.
       3    1    3    0  101    0  1.4599613890E+02 -5.6057829165E+02  1.7013546895E+01  5.7952791513E+02  5.0000000000E-01 0. 9.
 1000021    2    4    0  103  104  1.4618400060E+02  5.2349391856E+02  2.7664603324E+02  1.0584112811E+03  8.6503512500E+02 0. 9.
       2    1    4    0  104    0  1.9947508453E+01 -6.0767615100E-01 -8.7955064840E+01  9.0191322725E+01  3.3000000000E-01 0. 9.
 1000022    1    5    0    0    0 -1.9244823877E+02 -3.0484501521E+01  8.9711696806E+01  2.5028964126E+02  1.2896157000E+02 0. 9.
      24    2    5    0    0    0 -8.9743739922E+01  4.6298771428E+01 -5.7336697942E+01  1.4125929359E+02  8.0431188000E+01 0. 9.
 1000022    1    8    0    0    0 -1.5534909048E+02 -2.2697930847E+01 -4.5488745659E+01  2.0820386283E+02  1.2896157000E+02 0. 9.
       1    1    8    0  103    0  2.2989359712E+02  6.0624856575E+02  1.6774578390E+02  6.6972169323E+02  3.3000000000E-01 0. 9.
      -1    1    8    0    0  104  7.1639493964E+01 -6.0056716341E+01  1.5438899500E+02  1.8048572506E+02  3.3000000000E-01 0. 9.
      -1    1   11    0    0  105 -3.9639176729E+01  1.6898244488E+01 -6.9623121313E+01  8.1879807767E+01  3.3000000000E-01 0. 9.
       2    1   11    0  105    0 -5.0104563194E+01  2.9400526940E+01  1.2286423371E+01  5.9379485822E+01  3.3000000000E-01 0. 9.
</event>
<event>
    12   230  1.000000E+00  3.356704E+02  7.878477E-03  1.057985E-01
       1   -1    0    0  101    0  0.0000000000E+00  0.0000000000E+00  8.1558508440E+02  8.1558508440E+02  0.0000000000E+00 0. 9.
      -2   -1    0    0    0  101  0.0000000000E+00  0.0000000000E+00 -1.4223567085E+02  1.4223567085E+02  0.0000000000E+00 0. 9.
 1000023    2    1    2    0    0  1.5484242078E+02  1.2789356077E+02  2.5547022769E+02  4.2178346551E+02  2.6889276000E+02 0. 9.
-1000024    2    1    2    0    0 -1.5484242078E+02 -1.2789356077E+02  4.1787918586E+02  5.3603728974E+02  2.6903535800E+02 0. 9.
 1000022    1    3    0    0    0  1.2443382002E+02  6.4787662917E+01  1.4549208492E+02  2.3975039133E+02  1.2896157000E+02 0. 9.
      25    2    3    0    0    0  3.0408600766E+01  6.3105897853E+01  1.0997814277E+02  1.8203307418E+02  1.2701893900E+02 0. 9.
 1000022    1    4    0    0    0 -4.4531470029E+01 -1.3551898063E+02  2.9535307086E+02  3.5243860307E+02  1.2896157000E+02 0. 9.
     -24    2    4    0    0    0 -1.1031095075E+02  7.6254198646E+00  1.2252611501E+02  1.8359868667E+02  8.0431188000E+01 0. 9.
       5    1    6    0  102    0  4.5939039430E+01  9.6800479022E+01  7.5562686093E+01  1.3120018145E+02  4.8000000000E+00 0. 9.
      -5    1    6    0    0  102 -1.5530438664E+01 -3.3694581170E+01  3.4415456675E+01  5.0832892731E+01  4.8000000000E+00 0. 9.
      13    1    8    0    0    0 -1.9063313515E+01  4.3546895844E-01  8.0775617736E+01  8.2995850137E+01  1.0566000000E-01 0. 9.
     -14    1    8    0    0    0 -9.1247637237E+01  7.1899509062E+00  4.1750497271E+01  1.0060283653E+02  0.0000000000E+00 0. 9.
</event>
<event>
    14   254  1.000000E+00  8.547089E+02  7.962890E-03  9.440769E-02
      21   -1    0    0  101  102  0.0000000000E+00  0.0000000000E+00  5.0450100665E+02  5.0450100665E+02  0.0000000000E+00 0. 9.
       2   -1    0    0  102    0  0.0000000000E+00  0.0000000000E+00 -1.4150578501E+03  1.4150578501E+03  0.0000000000E+00 0. 9.
 1000024    2    1    2    0    0 -4.0871793676E+02 -1.8152598191E+02 -5.8009285133E+02  7.8031389451E+02  2.6903535800E+02 0. 9.
 1000001    2    1    2  101    0  4.0871793676E+02  1.8152598191E+02 -3.3046399208E+02  1.1392449622E+03  9.9431916400E+02 0. 9.
 1000022    1    3    0    0    0 -3.5091518945E+02 -1.7593893576E+02 -4.0215346553E+02  5.7658865379E+02  1.2896157000E+02 0. 9.
      24    2    3    0    0    0 -5.7802747305E+01 -5.5870461456E+00 -1.7793938580E+02  2.0372524071E+02  8.0431188000E+01 0. 9.
-1000024    2    4    0    0    0 -6.0045651008E+01  3.3784218092E+02 -4.5443758513E+02  6.2979072877E+02  2.6903535800E+02 0. 9.
       2    1    4    0  101    0  4.6876358777E+02 -1.5631619901E+02  1.2397359305E+02  5.0945423343E+02  3.3000000000E-01 0. 9.
     -15    1    6    0    0    0 -2.2939405185E+01  3.6779651926E+01 -6.4770595781E+01  7.7957340340E+01  1.7770000000E+00 0. 9.
      16    1    6    0    0    0 -3.4863342120E+01 -4.2366698072E+01 -1.1316879002E+02  1.2576790037E+02  0.0000000000E+00 0. 9.
 1000022    1    7    0    0    0 -5.9251122314E+01  3.0228383375E+02 -4.1693608460E+02  5.3418442210E+02  1.2896157000E+02 0. 9.
     -24    2    7    0    0    0 -7.9452869386E-01  3.5558347171E+01 -3.7501500530E+01  9.5606306667E+01  8.0431188000E+01 0. 9.
       1    1   12    0  103    0  2.6912596379E+01  2.9349420651E+01  9.2727300357E+00  4.0887268907E+01  3.3000000000E-01 0. 9.
      -2    1   12    0    0  103 -2.7707125073E+01  6.2089265202E+00 -4.6774230566E+01  5.4719037760E+01  3.3000000000E-01 0. 9.
</event>
<event>
    12   226  1.000000E+00  2.916239E+02  7.865928E-03  1.077552E-01
       2   -1    0    0  101    0  0.0000000000E+00  0.0000000000E+00  7.9642490107E+02  7.9642490107E+02  0.0000000000E+00 0. 9.
      -2   -1    0    0    0  101  0.0000000000E+00  0.0000000000E+00 -1.3564323098E+02  1.3564323098E+02  0.0000000000E+00 0. 9.
 1000024    2    1    2    0    0 -7.8193471413E+01  8.0933673051E+01  5.4535684989E+02  6.1843236977E+02  2.6903535800E+02 0. 9.
-1000024    2    1    2    0    0  7.8193471413E+01 -8.0933673051E+01  1.1542482019E+02  3.1363576227E+02  2.6903535800E+02 0. 9.
 1000022    1    3    0    0    0 -3.7064918382E+01 -1.3010738744E+01  1.4775400265E+02  2.0001354788E+02  1.2896157000E+02 0. 9.
      24    2    3    0    0    0 -4.1128553031E+01  9.3944411795E+01  3.9760284724E+02  4.1841882190E+02  8.0431188000E+01 0. 9.
 1000022    1    4    0    0    0  1.1869781814E+02 -3.9126582391E+01  1.1700220001E+02  2.1433773075E+02  1.2896157000E+02 0. 9.
     -24    2    4    0    0    0 -4.0504346726E+01 -4.1807090660E+01 -1.5773798173E+00  9.9298031518E+01  8.0431188000E+01 0. 9.
      -3    1    6    0    0  102 -1.6591667798E+01  6.5795861321E+01  3.5635759903E+02  3.6276075752E+02  5.0000000000E-01 0. 9.
       4    1    6    0  102    0 -2.4536885233E+01  2.8148550475E+01  4.1245248207E+01  5.5658064379E+01  1.5000000000E+00 0. 9.
      11    1    8    0    0    0 -5.0539747038E+01 -5.5869231399E+01  1.3296766982E+01  7.6501248750E+01  5.1000000000E-04 0. 9.
     -12    1    8    0    0    0  1.0035400312E+01  1.4062140739E+01 -1.4874146799E+01  2.2796782768E+01  0.0000000000E+00 0. 9.
</event>
<event>
    20   258  1.000000E+00  1.031793E+03  7.980116E-03  9.240342E-02
       2   -1    0    0  101    0  0.0000000000E+00  0.0000000000E+00  7.2322202502E+02  7.2322202502E+02  0.0000000000E+00 0. 9.
      21   -1    0    0  102  101  0.0000000000E+00  0.0000000000E+00 -1.6488743689E+03  1.6488743689E+03  0.0000000000E+00 0. 9.
 1000002    2    1    2  103    0 -2.7932964998E+02  3.4768870576E+02 -9.2812811766E+01  1.0911514524E+03  9.9150632100E+02 0. 9.
 1000021    2    1    2  102  103  2.7932964998E+02 -3.4768870576E+02 -8.3283953214E+02  1.2809449415E+03  8.6503512500E+02 0. 9.
 1000021    2    3    0  103  104 -3.4158618573E+02  3.9316756074E+02 -7.8875910599E+01  1.0128025621E+03  8.6503512500E+02 0. 9.
       2    1    3    0  104    0  6.2256535751E+01 -4.5478854972E+01 -1.3936901167E+01  7.8348890276E+01  3.3000000000E-01 0. 9.
 1000023    2    4    0    0    0  1.8214011674E+02 -4.3834121874E+01  3.0026693070E+00  3.2773279477E+02  2.6889276000E+02 0. 9.
       2    1    4    0  102    0  8.0109561420E+01 -6.6047773673E+01 -2.3294391274E+01  1.0640764918E+02  3.3000000000E-01 0. 9.
      -2    1    4    0    0  103  1.7079971820E+01 -2.3780681022E+02 -8.1254781017E+02  8.4680449759E+02  3.3000000000E-01 0. 9.
 1000024    2    5    0    0    0 -4.7293489043E+01 -8.2180522425E+01  7.8863661536E+01  2.9595576247E+02  2.6903535800E+02 0. 9.
      -2    1    5    0    0  104 -1.9131319506E+02  2.9923033226E+02  1.1763146700E+02  3.7413473680E+02  3.3000000000E-01 0. 9.
       1    1    5    0  103    0 -1.0297950163E+02  1.7611775090E+02 -2.7537103914E+02  3.4271206286E+02  3.3000000000E-01 0. 9.
 1000022    1    7    0    0    0  8.8812889373E+01 -2.9914081220E+01  4.1815387112E+01  1.6480957105E+02  1.2896157000E+02 0. 9.
      25    2    7    0    0    0  9.3327227368E+01 -1.3920040654E+01 -3.8812717805E+01  1.6292322372E+02  1.2701893900E+02 0. 9.
 1000022    1   10    0    0    0  4.2624276224E+01 -8.7397055768E+01  2.3862207654E+01  1.6326532324E+02  1.2896157000E+02 0. 9.
      24    2   10    0    0    0 -8.9917765267E+01  5.2165333432E+00  5.5001453882E+01  1.3269043923E+02  8.0431188000E+01 0. 9.
       5    1   14    0  105    0 -8.2733219243E+00 -4.0304072687E+01 -4.0356030275E+01  5.7831784603E+01  4.8000000000E+00 0. 9.
      -5    1   14    0    0  105  1.0160054929E+02  2.6384032033E+01  1.5433124706E+00  1.0509143912E+02  4.8000000000E+00 0. 9.
      -3    1   16    0    0  106 -7.6832309812E+01 -2.6460151321E+01  2.0015093865E+01  8.3691083285E+01  5.0000000000E-01 0. 9.
       4    1   16    0  106    0 -1.3085455455E+01  3.1676684664E+01  3.4986360017E+01  4.8999355945E+01  1.5000000000E+00 0. 9.
</event>
<event>
    16   258  1.000000E+00  9.538825E+02  7.972924E-03  9.322871E-02
       2   -1    0    0  101    0  0.0000000000E+00  0.0000000000E+00  2.1173947714E+03  2.1173947714E+03  0.0000000000E+00 0. 9.
      21   -1    0    0  102  101  0.0000000000E+00  0.0000000000E+00 -4.8819628838E+02  4.8819628838E+02  0.0000000000E+00 0. 9.
 1000002    2    1    2  103    0  1.7724991014E+02  1.1308864878E+02  1.3177651861E+03  1.6624669752E+03  9.9150632100E+02 0. 9.
 1000021    2    1    2  102  103 -1.7724991014E+02 -1.1308864878E+02  3.1143329691E+02  9.4312408464E+02  8.6503512500E+02 0. 9.
 1000021    2    3    0  103  104  2.6886947890E+02  1.2838081137E+02  1.1384626950E+03  1.4605326100E+03  8.6503512500E+02 0. 9.
       2    1    3    0  104    0 -9.1619568755E+01 -1.5292162584E+01  1.7930249115E+02  2.0193436520E+02  3.3000000000E-01 0. 9.
-1000024    2    4    0    0    0 -2.0230359803E+02 -3.9846950168E+02  3.1415147136E+02  6.0891367234E+02  2.6903535800E+02 0. 9.
       4    1    4    0  102    0 -4.4104813568E+01  1.4366068744E+01  2.5733776606E+01  5.3066899000E+01  1.5000000000E+00 0. 9.
      -3    1    4    0    0  103  6.9158501456E+01  2.7101478416E+02 -2.8451951057E+01  2.8114351331E+02  5.0000000000E-01 0. 9.
 1000022    1    5    0    0    0  2.9167627048E+02  2.6596617179E+02  3.1706414563E+02  5.2246895628E+02  1.2896157000E+02 0. 9.
       2    1    5    0  103    0  1.4053604438E+02 -1.2578657993E+02  7.2258278716E+02  7.4679223125E+02  3.3000000000E-01 0. 9.
      -2    1    5    0    0  104 -1.6334283596E+02 -1.1798780492E+01  9.8815762208E+01  1.9127142244E+02  3.3000000000E-01 0. 9.
 1000022    1    7    0    0    0 -1.6885293215E+02 -2.8417894826E+02  2.9975378941E+02  4.6449155873E+02  1.2896157000E+02 0. 9.
     -24    2    7    0    0    0 -3.3450665883E+01 -1.1429055342E+02  1.4397681947E+01  1.4442211361E+02  8.0431188000E+01 0. 9.
      13    1   14    0    0    0  1.0156332881E+01 -4.1328377410E+01  3.7081878594E+01  5.6446990717E+01  1.0566000000E-01 0. 9.
     -14    1   14    0    0    0 -4.3606998764E+01 -7.2962176015E+01 -2.2684196647E+01  8.7975122890E+01  0.0000000000E+00 0. 9.
</event>
<event>
    21   258  1.000000E+00  9.553142E+02  7.973061E-03  9.321281E-02
       2   -1    0    0  101    0  0.0000000000E+00  0.0000000000E+00  2.4869393763E+03  2.4869393763E+03  0.0000000000E+00 0. 9.
      21   -1    0    0  102  101  0.0000000000E+00  0.0000000000E+00 -3.7154179257E+02  3.7154179257E+02  0.0000000000E+00 0. 9.
 1000002    2    1    2  103    0  2.1367358053E+02 -3.5825622023E+01  9.4214883876E+02  1.3847992971E+03  9.9150632100E+02 0. 9.
 1000021    2    1    2  102  103 -2.1367358053E+02  3.5825622023E+01  1.1732487450E+03  1.4736818718E+03  8.6503512500E+02 0. 9.
 1000024    2    3    0    0    0 -3.2994195206E+02  1.1108604332E+02  5.1910428278E+02  6.8047856763E+02  2.6903535800E+02 0. 9.
       1    1    3    0  103    0  5.4361553258E+02 -1.4691166534E+02  4.2304455598E+02  7.0432072944E+02  3.3000000000E-01 0. 9.
 1000024    2    4    0    0    0 -1.0005746869E+01  8.9541911065E+01  3.0349496533E+02  4.1546009031E+02  2.6903535800E+02 0. 9.
      -6    2    4    0    0  103 -5.6918839700E+01 -1.7694879783E+01  8.8731499727E+02  9.0602373449E+02  1.7320000000E+02 0. 9.
       5    1    4    0  102    0 -1.4674899396E+02 -3.6021409260E+01 -1.7561217599E+01  1.5219804702E+02  4.8000000000E+00 0. 9.
 1000022    1    5    0    0    0 -6.3328150658E+01  6.1020542511E+01  2.0616251908E+02  2.5858853819E+02  1.2896157000E+02 0. 9.
      24    2    5    0    0    0 -2.6661380140E+02  5.0065500808E+01  3.1294176371E+02  4.2189002944E+02  8.0431188000E+01 0. 9.
 1000022    1    7    0    0    0  1.9376488147E+01 -3.2720498675E+01  1.4282040347E+02  1.9615002806E+02  1.2896157000E+02 0. 9.
      24    2    7    0    0    0 -2.9382235016E+01  1.2226240974E+02  1.6067456187E+02  2.1931006225E+02  8.0431188000E+01 0. 9.
     -24    2    8    0    0    0 -2.1646207423E+01  5.4835188172E+01  4.1244288362E+02  4.2432742594E+02  8.0431188000E+01 0. 9.
      -5    1    8    0    0  103 -3.5272632277E+01 -7.2530067955E+01  4.7487211365E+02  4.8169630855E+02  4.8000000000E+00 0. 9.
      -3    1   11    0    0  104 -8.6548298096E+01  5.5454061824E+01  1.1461054277E+02  1.5395319870E+02  5.0000000000E-01 0. 9.
       4    1   11    0  104    0 -1.8006550330E+02 -5.3885610159E+00  1.9833122094E+02  2.6793683074E+02  1.5000000000E+00 0. 9.
     -13    1   13    0    0    0  4.4446410916E+00  7.5061910800E+00  6.6455965194E+01  6.7026145741E+01  1.0566000000E-01 0. 9.
      14    1   13    0    0    0 -3.3826876107E+01  1.1475621866E+02  9.4218596672E+01  1.5228391651E+02  0.0000000000E+00 0. 9.
      13    1   14    0    0    0 -1.5347885061E+01 -1.6911753816E+01  1.6639388125E+02  1.6795386234E+02  1.0566000000E-01 0. 9.
     -14    1   14    0    0    0 -6.2983223624E+00  7.1746941988E+01  2.4604900237E+02  2.5637356361E+02  0.0000000000E+00 0. 9.
</event>
<event>
    28   259  1.000000E+00  1.157739E+03  7.990689E-03  9.121891E-02
       2   -1    0    0  101    0  0.0000000000E+00  0.0000000000E+00  1.3841427627E+03  1.3841427627E+03  0.0000000000E+00 0. 9.
      21   -1    0    0  102  101  0.0000000000E+00  0.0000000000E+00 -9.9054215173E+02  9.9054215173E+02  0.0000000000E+00 0. 9.
 2000002    2    1    2  103    0  6.8360400678E+02 -8.6972121579E+01  3.8996912934E+02  1.2687113419E+03  9.9129912700E+02 0. 9.
 1000021    2    1    2  102  103 -6.8360400678E+02  8.6972121579E+01  3.6314816188E+00  1.1059735725E+03  8.6503512500E+02 0. 9.
 1000021    2    3    0  103  104  6.3448712287E+02 -1.4888663926E+02  4.4655467985E+02  1.1715109859E+03  8.6503512500E+02 0. 9.
       2    1    3    0  104    0  4.9116883906E+01  6.1914517683E+01 -5.6585550505E+01  9.7200356020E+01  3.3000000000E-01 0. 9.
 1000024    2    4    0    0    0 -1.2175207225E+02  1.3642229100E+01 -1.2140813842E+01  2.9586669418E+02  2.6903535800E+02 0. 9.
      -2    1    4    0    0  103 -5.5382500593E+02 -1.4203359981E+02  9.6761827035E+01  5.7987812577E+02  3.3000000000E-01 0. 9.
       1    1    4    0  102    0 -8.0269285958E+00  2.1536349229E+02 -8.0989531574E+01  2.3022875259E+02  3.3000000000E-01 0. 9.
 1000023    2    5    0    0    0  6.4861055219E+01 -1.2718060583E+02  3.7164411330E+02  4.8042119678E+02  2.6889276000E+02 0. 9.
       6    2    5    0  103    0  4.3162542840E+02 -1.5572197347E+01  4.4275191972E+01  4.6744147912E+02  1.7320000000E+02 0. 9.
      -6    2    5    0    0  104  1.3800063925E+02 -6.1338360803E+00  3.0635374572E+01  2.2364830997E+02  1.7320000000E+02 0. 9.
 1000022    1    7    0    0    0 -9.7208602655E+01 -6.5400782292E+01  2.1741528754E+01  1.7558631884E+02  1.2896157000E+02 0. 9.
      24    2    7    0    0    0 -2.4543469591E+01  7.9043011391E+01 -3.3882342595E+01  1.2028037534E+02  8.0431188000E+01 0. 9.
 1000022    1   10    0    0    0  8.8834958813E+01 -1.2393337392E+02  3.0632403292E+02  3.6567284663E+02  1.2896157000E+02 0. 9.
      23    2   10    0    0    0 -2.3973903594E+01 -3.2472319185E+00  6.5320080380E+01  1.1474835015E+02  9.1187600000E+01 0. 9.
      24    2   11    0    0    0  4.1224251268E+02 -4.5168597631E+01  6.3028151970E+01  4.2711335196E+02  8.0431188000E+01 0. 9.
       5    1   11    0  103    0  1.9382915721E+01  2.9596400284E+01 -1.8752959998E+01  4.0328127161E+01  4.8000000000E+00 0. 9.
     -24    2   12    0    0    0  1.2232008766E+02  5.5559208812E+01  1.1490697551E+01  1.5700395429E+02  8.0431188000E+01 0. 9.
      -5    1   12    0    0  104  1.5680551588E+01 -6.1693044892E+01  1.9144677021E+01  6.6644355683E+01  4.8000000000E+00 0. 9.
      -3    1   14    0    0  105 -5.1476801766E+01  3.0602925693E+01 -1.9778418627E+01  6.3070088191E+01  5.0000000000E-01 0. 9.
       4    1   14    0  105    0  2.6933332175E+01  4.8440085699E+01 -1.4103923969E+01  5.7210287151E+01  1.5000000000E+00 0. 9.
       4    1   16    0  106    0  3.3974119924E+01 -3.2628230104E+00  3.6562797134E+01  5.0039733941E+01  1.5000000000E+00 0. 9.
      -4    1   16    0    0  106 -5.7948023518E+01  1.5591091866E-02  2.8757283246E+01  6.4708616214E+01  1.5000000000E+00 0. 9.
     -11    1   17    0    0    0  6.8702934138E+00 -7.9943521111E+00  1.3365515590E+01  1.7021974166E+01  5.1000000000E-04 0. 9.
      12    1   17    0    0    0  4.0537221927E+02 -3.7174245520E+01  4.9662636380E+01  4.1009137779E+02  0.0000000000E+00 0. 9.
      11    1   19    0    0    0  8.8922327780E+01  3.2719078174E+01 -2.9669081360E+01  9.9287324687E+01  5.1000000000E-04 0. 9.
     -12    1   19    0    0    0  3.3397759878E+01  2.2840130638E+01  4.1159778911E+01  5.7716629601E+01  0.0000000000E+00 0. 9.
</event>
<event>
    13   258  1.000000E+00  1.017392E+03  7.978827E-03  9.255010E-02
       2   -1    0    0  101    0  0.0000000000E+00  0.0000000000E+00  1.4645643796E+03  1.4645643796E+03  0.0000000000E+00 0. 9.
      21   -1    0    0  102  101  0.0000000000E+00  0.0000000000E+00 -9.7703985455E+02  9.7703985455E+02  0.0000000000E+00 0. 9.
 1000002    2    1    2  103    0  5.0157438916E+01 -4.0851623122E+02 -3.9028550772E+02  1.1422822952E+03  9.9150632100E+02 0. 9.
 1000021    2    1    2  102  103 -5.0157438916E+01  4.0851623122E+02  8.7781003274E+02  1.2993219389E+03  8.6503512500E+02 0. 9.
 1000022    1    3    0    0    0  4.1655164867E+02 -1.8631517169E+01  6.3093584987E+01  4.4099239953E+02  1.2896157000E+02 0. 9.
       2    1    3    0  103    0 -3.6639420975E+02 -3.8988471405E+02 -4.5337909271E+02  7.0128989569E+02  3.3000000000E-01 0. 9.
 1000024    2    4    0    0    0 -3.9726223593E+02  1.5702430265E+02  3.7123179526E+02  6.2663145898E+02  2.6903535800E+02 0. 9.
      -2    1    4    0    0  103  2.5516242591E+02  2.2670244815E+02  3.4615381066E+02  4.8613211489E+02  3.3000000000E-01 0. 9.
       1    1    4    0  102    0  9.1942371097E+01  2.4789480418E+01  1.6042442682E+02  1.8655836503E+02  3.3000000000E-01 0. 9.
 1000022    1    7    0    0    0 -2.7737448312E+02  1.4137390026E+02  1.6714270052E+02  3.7615283122E+02  1.2896157000E+02 0. 9.
      24    2    7    0    0    0 -1.1988775281E+02  1.5650402388E+01  2.0408909475E+02  2.5047862776E+02  8.0431188000E+01 0. 9.
     -15    1   11    0    0    0 -1.2218459713E+02 -6.1847450513E+00  1.8224130821E+02  2.1950484960E+02  1.7770000000E+00 0. 9.
      16    1   11    0    0    0  2.2968443239E+00  2.1835147440E+01  2.1847786535E+01  3.0973778168E+01  0.0000000000E+00 0. 9.
</event>
<event>
    12   226  1.000000E+00  3.607180E+02  7.884913E-03  1.048246E-01
      -2   -1    0    0    0  101  0.0000000000E+00  0.0000000000E+00  1.6968112742E+02  1.6968112742E+02  0.0000000000E+00 0. 9.
       2   -1    0    0  101    0  0.0000000000E+00  0.0000000000E+00 -8.2228609085E+02  8.2228609085E+02  0.0000000000E+00 0. 9.
-1000024    2    1    2    0    0 -7.6182636158E+01 -2.2788963468E+02 -1.9750447499E+02  4.1124873391E+02  2.6903535800E+02 0. 9.
 1000024    2    1    2    0    0  7.6182636158E+01  2.2788963468E+02 -4.5510048844E+02  5.8071848436E+02  2.6903535800E+02 0. 9.
 1000022    1    3    0    0    0  4.2482128286E+01 -1.0665274513E+02 -1.0319018177E+02  2.0114382769E+02  1.2896157000E+02 0. 9.
     -24    2    3    0    0    0 -1.1866476444E+02 -1.2123688956E+02 -9.4314293224E+01  2.1010490622E+02  8.0431188000E+01 0. 9.
 1000022    1    4    0    0    0  1.2707843472E+02  1.5385207647E+02 -3.3336822523E+02  4.0937128641E+02  1.2896157000E+02 0. 9.
      24    2    4    0    0    0 -5.0895798564E+01  7.4037558209E+01 -1.2173226321E+02  1.7134719795E+02  8.0431188000E+01 0. 9.
       1    1    6    0  102    0 -1.9017663996E+01 -2.5493651040E+00 -4.2614877011E+01  4.6736575066E+01  3.3000000000E-01 0. 9.
      -2    1    6    0    0  102 -9.9647100448E+01 -1.1868752445E+02 -5.1699416213E+01  1.6336833116E+02  3.3000000000E-01 0. 9.
      -3    1    8    0    0  103 -3.8051118303E+01  4.3328524254E+01 -1.5073279483E+01  5.9604549931E+01  5.0000000000E-01 0. 9.
       4    1    8    0  103    0 -1.2844680261E+01  3.0709033955E+01 -1.0665898372E+02  1.1174264802E+02  1.5000000000E+00 0. 9.
</event>
<event>
    12   230  1.000000E+00  3.396517E+02  7.879531E-03  1.056377E-01
      -1   -1    0    0    0  101  0.0000000000E+00  0.0000000000E+00  2.1731856788E+02  2.1731856788E+02  0.0000000000E+00 0. 9.
       2   -1    0    0  101    0  0.0000000000E+00  0.0000000000E+00 -5.3104878617E+02  5.3104878617E+02  0.0000000000E+00 0. 9.
 1000023    2    1    2    0    0  2.0556033476E+02 -2.7686234595E+01 -1.6410500988E+02  3.7716753500E+02  2.6889276000E+02 0. 9.
 1000024    2    1    2    0    0 -2.0556033476E+02  2.7686234595E+01 -1.4962520842E+02  3.7119981905E+02  2.6903535800E+02 0. 9.
 1000022    1    3    0    0    0  1.3296110799E+02 -2.6177544005E+01 -1.2737548853E+02  2.2631730306E+02  1.2896157000E+02 0. 9.
      25    2    3    0    0    0  7.2599226767E+01 -1.5086905900E+00 -3.6729521349E+01  1.5085023194E+02  1.2701893900E+02 0. 9.
 1000022    1    4    0    0    0 -6.9640291312E+01  6.2184072507E+01 -1.3355133961E+01  1.5976881794E+02  1.2896157000E+02 0. 9.
      24    2    4    0    0    0 -1.3592004345E+02 -3.4497837912E+01 -1.3627007446E+02  2.1143100110E+02  8.0431188000E+01 0. 9.
       5    1    6    0  102    0  7.4342423526E+01 -4.8318028973E+01  3.5789731183E+00  8.8866624264E+01  4.8000000000E+00 0. 9.
      -5    1    6    0    0  102 -1.7431967583E+00  4.6809338383E+01 -4.0308494467E+01  6.1983607680E+01  4.8000000000E+00 0. 9.
      -3    1    8    0    0  103 -7.0489152954E+01 -8.3415102393E+00 -1.1948412693E+02  1.3897844461E+02  5.0000000000E-01 0. 9.
       4    1    8    0  103    0 -6.5430890493E+01 -2.6156327672E+01 -1.6785947526E+01  7.2452556493E+01  1.5000000000E+00 0. 9.
</event>
<event>
    18   244  1.000000E+00  1.070287E+03  7.983475E-03  9.202338E-02
      21   -1    0    0  101  102  0.0000000000E+00  0.0000000000E+00  1.1003145553E+03  1.1003145553E+03  0.0000000000E+00 0. 9.
      21   -1    0    0  102  103  0.0000000000E+00  0.0000000000E+00 -1.0466461563E+03  1.0466461563E+03  0.0000000000E+00 0. 9.
 1000021    2    1    2  101  104  4.9117427262E+02 -3.9493907106E+02  1.0512229817E+02  1.0754373534E+03  8.6503512500E+02 0. 9.
 1000021    2    1    2  104  103 -4.9117427262E+02  3.9493907106E+02 -5.1453899206E+01  1.0715233582E+03  8.6503512500E+02 0. 9.
-1000024    2    3    0    0    0  1.8973573771E+02  4.8025229084E+01  1.4253435996E+02  3.6194217828E+02  2.6903535800E+02 0. 9.
       4    1    3    0  101    0 -2.3698542749E+01 -9.7500003894E+01 -1.9023729393E+02  2.1508219287E+02  1.5000000000E+00 0. 9.
      -3    1    3    0    0  104  3.2513707766E+02 -3.4546429625E+02  1.5282523214E+02  4.9841298221E+02  5.0000000000E-01 0. 9.
 1000023    2    4    0    0    0 -5.2757174275E+02 -1.4220067572E+00 -3.9623980186E+01  5.9347059071E+02  2.6889276000E+02 0. 9.
       5    1    4    0  104    0 -3.5923070147E+01  3.9673485717E+02  2.0005496628E+01  3.9888879874E+02  4.8000000000E+00 0. 9.
      -5    1    4    0    0  103  7.2320540280E+01 -3.7377935893E-01 -3.1835415649E+01  7.9163968742E+01  4.8000000000E+00 0. 9.
 1000022    1    5    0    0    0  6.3968104756E+01 -4.0808319594E+01  1.0874112621E+02  1.8496744698E+02  1.2896157000E+02 0. 9.
     -24    2    5    0    0    0  1.2576763295E+02  8.8833548678E+01  3.3793233751E+01  1.7697473130E+02  8.0431188000E+01 0. 9.
 1000022    1    8    0    0    0 -3.2904792274E+02 -3.0247675819E+01 -2.3788409048E+01  3.5550588222E+02  1.2896157000E+02 0. 9.
      25    2    8    0    0    0 -1.9852382001E+02  2.8825669062E+01 -1.5835571138E+01  2.3796470849E+02  1.2701893900E+02 0. 9.
       1    1   12    0  105    0  4.7400894240E+00  3.7634584731E+01 -8.5961523051E+00  3.8895155869E+01  3.3000000000E-01 0. 9.
      -2    1   12    0    0  105  1.2102754353E+02  5.1198963946E+01  4.2389386056E+01  1.3807957543E+02  3.3000000000E-01 0. 9.
       5    1   14    0  106    0  1.7551357926E+01  6.8434830204E+00  3.8965633199E+00  1.9826916821E+01  4.8000000000E+00 0. 9.
      -5    1   14    0    0  106 -2.1607517794E+02  2.1982186042E+01 -1.9732134458E+01  2.1813779167E+02  4.8000000000E+00 0. 9.
</event>
<event>
    19   238  1.000000E+00  7.213278E+02  7.947432E-03  9.628966E-02
       1   -1    0    0  101    0  0.0000000000E+00  0.0000000000E+00  1.0023126128E+03  1.0023126128E+03  0.0000000000E+00 0. 9.
      -1   -1    0    0    0  102  0.0000000000E+00  0.0000000000E+00 -4.6044758900E+02  4.6044758900E+02  0.0000000000E+00 0. 9.
 1000023    2    1    2    0    0  7.2794709404E+01  3.2360509032E+02  1.1196482281E+02  4.4142809395E+02  2.6889276000E+02 0. 9.
 1000021    2    1    2  101  102 -7.2794709404E+01 -3.2360509032E+02  4.2990020097E+02  1.0213321078E+03  8.6503512500E+02 0. 9.
 1000022    1    3    0    0    0  2.2740333174E+01  2.1816142849E+02  6.9794447169E+01  2.6384442959E+02  1.2896157000E+02 0. 9.
      25    2    3    0    0    0  5.0054376231E+01  1.0544366183E+02  4.2170375639E+01  1.7758366436E+02  1.2701893900E+02 0. 9.
 1000024    2    4    0    0    0 -8.1449258875E+01  1.5579890587E+01 -7.4869831930E+01  2.9131122592E+02  2.6903535800E+02 0. 9.
      -6    2    4    0    0  102  1.2459174344E+02 -2.5869629380E+02  4.8170813298E+02  5.8693086504E+02  1.7320000000E+02 0. 9.
       5    1    4    0  101    0 -1.1593719397E+02 -8.0488687112E+01  2.3061899925E+01  1.4309001687E+02  4.8000000000E+00 0. 9.
       5    1    6    0  103    0 -1.9775994182E+01  7.1747529669E+01 -2.0977298169E+01  7.7471833578E+01  4.8000000000E+00 0. 9.
      -5    1    6    0    0  103  6.9830370412E+01  3.3696132164E+01  6.3147673808E+01  1.0011183078E+02  4.8000000000E+00 0. 9.
 1000022    1    7    0    0    0 -6.8633436034E+01 -7.0490214083E+00 -1.2554802933E+02  1.9275277287E+02  1.2896157000E+02 0. 9.
      24    2    7    0    0    0 -1.2815822841E+01  2.2628911995E+01  5.0678197399E+01  9.8558453052E+01  8.0431188000E+01 0. 9.
     -24    2    8    0    0    0  1.1997766694E+02 -2.4650437812E+02  3.3809349230E+02  4.4264594716E+02  8.0431188000E+01 0. 9.
      -5    1    8    0    0  102  4.6140764978E+00 -1.2191915671E+01  1.4361464068E+02  1.4428491788E+02  4.8000000000E+00 0. 9.
      -1    1   13    0    0  104 -1.4258993482E+01 -7.6403263476E-02  6.8303601622E+01  6.9776898950E+01  3.3000000000E-01 0. 9.
       2    1   13    0  104    0  1.4431706410E+00  2.2705315259E+01 -1.7625404222E+01  2.8781554102E+01  3.3000000000E-01 0. 9.
       1    1   14    0  105    0  6.8092309636E+01 -1.3933578458E+02  2.5130059271E+02  2.9530174448E+02  3.3000000000E-01 0. 9.
      -2    1   14    0    0  105  5.1885357305E+01 -1.0716859354E+02  8.6792899592E+01  1.4734420268E+02  3.3000000000E-01 0. 9.
</event>
<event>
    15   238  1.000000E+00  6.971355E+02  7.944332E-03  9.667715E-02
       2   -1    0    0  101    0  0.0000000000E+00  0.0000000000E+00  2.3029735577E+03  2.3029735577E+03  0.0000000000E+00 0. 9.
      -2   -1    0    0    0  102  0.0000000000E+00  0.0000000000E+00 -1.9387581896E+02  1.9387581896E+02  0.0000000000E+00 0. 9.
 1000021    2    1    2  101  102  2.7312032031E+02  3.3295610826E+01  1.1615054548E+03  1.4741383911E+03  8.6503512500E+02 0. 9.
 1000023    2    1    2    0    0 -2.7312032031E+02 -3.3295610826E+01  9.4759228388E+02  1.0227109855E+03  2.6889276000E+02 0. 9.
-1000024    2    3    0    0    0  9.1538241547E+01  3.6429581174E+02  4.2342029636E+02  6.2670204989E+02  2.6903535800E+02 0. 9.
       2    1    3    0  101    0  7.0542579533E+01 -4.4579670574E+01  5.9292501654E+01  1.0236851180E+02  3.3000000000E-01 0. 9.
      -1    1    3    0    0  102  1.1103949923E+02 -2.8642053034E+02  6.7879265683E+02  7.4506782943E+02  3.3000000000E-01 0. 9.
 1000022    1    4    0    0    0 -8.7677840431E+01 -3.4720163507E+01  3.7848138958E+02  4.1081886794E+02  1.2896157000E+02 0. 9.
      25    2    4    0    0    0 -1.8544247988E+02  1.4245526803E+00  5.6911089430E+02  6.1189211759E+02  1.2701893900E+02 0. 9.
 1000022    1    5    0    0    0  1.8968023926E+01  1.2596477373E+02  8.8829809772E+01  2.0186315115E+02  1.2896157000E+02 0. 9.
     -24    2    5    0    0    0  7.2570217621E+01  2.3833103801E+02  3.3459048659E+02  4.2483889874E+02  8.0431188000E+01 0. 9.
       5    1    9    0  103    0 -3.5731713090E+01  2.8986957326E+01  2.9239446908E+02  2.9603135740E+02  4.8000000000E+00 0. 9.
      -5    1    9    0    0  103 -1.4971076679E+02 -2.7562404645E+01  2.7671642522E+02  3.1586076019E+02  4.8000000000E+00 0. 9.
       1    1   11    0  104    0  2.7327138720E+01  1.3247812329E+02  1.1776232579E+02  1.7934687044E+02  3.3000000000E-01 0. 9.
      -2    1   11    0    0  104  4.5243078901E+01  1.0585291471E+02  2.1682816080E+02  2.4549202830E+02  3.3000000000E-01 0. 9.
</event>
<event>
    30   272  1.000000E+00  9.969489E+02  7.976967E-03  9.276273E-02
       2   -1    0    0  101    0  0.0000000000E+00  0.0000000000E+00  1.0708071668E+03  1.0708071668E+03  0.0000000000E+00 0. 9.
       1   -1    0    0  102    0  0.0000000000E+00  0.0000000000E+00 -1.0379657004E+03  1.0379657004E+03  0.0000000000E+00 0. 9.
 2000002    2    1    2  102    0  1.7557578070E+01  1.0257677874E+02 -3.2648525952E+02  1.0488550176E+03  9.9129912700E+02 0. 9.
 2000001    2    1    2  101    0 -1.7557578070E+01 -1.0257677874E+02  3.5932672594E+02  1.0599178497E+03  9.9170554500E+02 0. 9.
 1000021    2    3    0  102  103  2.9673878655E+01  7.6134809703E+01 -1.6455240836E+02  8.8433043084E+02  8.6503512500E+02 0. 9.
       2    1    3    0  103    0 -1.2116300585E+01  2.6441969039E+01 -1.6193285116E+02  1.6452458677E+02  3.3000000000E-01 0. 9.
 1000021    2    4    0  101  104  7.7400098940E+01 -1.2794549589E+02  2.4971150539E+02  9.1268966722E+02  8.6503512500E+02 0. 9.
       1    1    4    0  104    0 -9.4957677010E+01  2.5368717148E+01  1.0961522054E+02  1.4722818245E+02  3.3000000000E-01 0. 9.
-1000024    2    5    0    0    0  1.9631310582E+02 -1.4072129865E+01 -3.8183981294E+02  5.0687131202E+02  2.6903535800E+02 0. 9.
       4    1    5    0  102    0 -9.1882120350E+01  1.6123580293E+02  7.1487360865E+01  1.9887684870E+02  1.5000000000E+00 0. 9.
      -3    1    5    0    0  103 -7.4757106815E+01 -7.1028863364E+01  1.4580004371E+02  1.7858227011E+02  5.0000000000E-01 0. 9.
 1000023    2    7    0    0    0 -2.1638523572E+02 -6.2654328577E+01  2.8917340601E+01  3.5197679482E+02  2.6889276000E+02 0. 9.
       6    2    7    0  101    0  8.6820582572E+01 -1.2202889684E+01 -2.0001203315E+01  1.9515381679E+02  1.7320000000E+02 0. 9.
      -6    2    7    0    0  104  2.0696475209E+02 -5.3088277629E+01  2.4079536811E+02  3.6555905560E+02  1.7320000000E+02 0. 9.
 1000022    1    9    0    0    0  7.0483015666E+01 -2.3011131746E+01 -3.0349827464E+02  3.3799357528E+02  1.2896157000E+02 0. 9.
     -24    2    9    0    0    0  1.2583009015E+02  8.9390018814E+00 -7.8341538291E+01  1.6887773674E+02  8.0431188000E+01 0. 9.
 1000022    1   12    0    0    0 -7.8447291214E+01 -4.3477228171E+00 -1.1663515068E+01  1.5145957980E+02  1.2896157000E+02 0. 9.
      25    2   12    0    0    0 -1.3793794451E+02 -5.8306605760E+01  4.0580855669E+01  2.0051721502E+02  1.2701893900E+02 0. 9.
      24    2   13    0    0    0  9.1318885372E+01  1.0556133276E+01  4.1694001684E+01  1.2906640366E+02  8.0431188000E+01 0. 9.
       5    1   13    0  101    0 -4.4983027994E+00 -2.2759022960E+01 -6.1695204999E+01  6.6087413129E+01  4.8000000000E+00 0. 9.
     -24    2   14    0    0    0  3.0888933024E+01 -1.2831858340E+01  1.1973498043E+02  1.4806898498E+02  8.0431188000E+01 0. 9.
      -5    1   14    0    0  104  1.7607581906E+02 -4.0256419289E+01  1.2106038768E+02  2.1749007062E+02  4.8000000000E+00 0. 9.
       3    1   16    0  105    0  7.3120255833E+01 -2.3093819563E+01 -1.0868357124E+01  7.7448482888E+01  5.0000000000E-01 0. 9.
      -4    1   16    0    0  105  5.2709834321E+01  3.2032821444E+01 -6.7473181167E+01  9.1429253856E+01  1.5000000000E+00 0. 9.
       5    1   18    0  106    0  5.7087899946E+00 -6.8056255797E+00  4.6641218336E+01  4.7721589145E+01  4.8000000000E+00 0. 9.
      -5    1   18    0    0  106 -1.4364673450E+02 -5.1500980180E+01 -6.0603626668E+00  1.5279562588E+02  4.8000000000E+00 0. 9.
      -3    1   19    0    0  107  1.0267581084E+02  1.2464216831E+01  4.9981738724E+01  1.1487429233E+02  5.0000000000E-01 0. 9.
       2    1   19    0  107    0 -1.1356925466E+01 -1.9080835545E+00 -8.2877370397E+00  1.4192111334E+01  3.3000000000E-01 0. 9.
      13    1   21    0    0    0  2.7199459466E+01 -3.6642903162E+01  1.1471183168E+02  1.2345577523E+02  1.0566000000E-01 0. 9.
     -14    1   21    0    0    0  3.6894735575E+00  2.3811044822E+01  5.0231487478E+00  2.4613209745E+01  0.0000000000E+00 0. 9.
</event>
<event>
    12   230  1.000000E+00  2.900439E+02  7.865444E-03  1.078322E-01
       1   -1    0    0  101    0  0.0000000000E+00  0.0000000000E+00  3.4827554489E+02  3.4827554489E+02  0.0000000000E+00 0. 9.
      -2   -1    0    0    0  101  0.0000000000E+00  0.0000000000E+00 -4.4724625201E+02  4.4724625201E+02  0.0000000000E+00 0. 9.
 1000023    2    1    2    0    0  1.0494728143E+02  2.7746012691E+01 -3.1923052586E+02  4.3127162916E+02  2.6889276000E+02 0. 9.
-1000024    2    1    2    0    0 -1.0494728143E+02 -2.7746012691E+01  2.2025981874E+02  3.6425016775E+02  2.6903535800E+02 0. 9.
 1000022    1    3    0    0    0  2.6583009498E+01 -9.7557630319E+00 -1.8359763639E+02  2.2614378155E+02  1.2896157000E+02 0. 9.
      25    2    3    0    0    0  7.8364271931E+01  3.7501775723E+01 -1.3563288946E+02  2.0512784761E+02  1.2701893900E+02 0. 9.
 1000022    1    4    0    0    0  7.1723438216E+00  2.0783899523E+01  5.0662949844E+01  1.4028982151E+02  1.2896157000E+02 0. 9.
     -24    2    4    0    0    0 -1.1211962525E+02 -4.8529912214E+01  1.6959686889E+02  2.2396034624E+02  8.0431188000E+01 0. 9.
      21    1    6    0  102  103  9.0503265909E+01  7.2969765708E+01 -9.8696687565E+01  1.5250070159E+02  0.0000000000E+00 0. 9.
      21    1    6    0  103  102 -1.2138993978E+01 -3.5467989985E+01 -3.6936201896E+01  5.2627146027E+01  0.0000000000E+00 0. 9.
      13    1    8    0    0    0 -8.8861973114E+01 -3.1766993610E+01  1.7094090681E+02  1.9525981905E+02  1.0566000000E-01 0. 9.
     -14    1    8    0    0    0 -2.3257652137E+01 -1.6762918603E+01 -1.3440379207E+00  2.8700527190E+01  0.0000000000E+00 0. 9.
</event>
<event>
    12   273  1.000000E+00  1.307151E+03  8.001862E-03  9.000295E-02
       2   -1    0    0  101    0  0.0000000000E+00  0.0000000000E+00  2.9388732053E+03  2.9388732053E+03  0.0000000000E+00 0. 9.
       2   -1    0    0  102    0  0.0000000000E+00  0.0000000000E+00 -7.3469656556E+02  7.3469656556E+02  0.0000000000E+00 0. 9.
 1000002    2    1    2  102    0  8.5190888943E+02  4.0698107954E+00  1.9411723295E+03  2.3402991511E+03  9.9150632100E+02 0. 9.
 2000002    2    1    2  101    0 -8.5190888943E+02 -4.0698107954E+00  2.6300431032E+02  1.3332706198E+03  9.9129912700E+02 0. 9.
 1000023    2    3    0    0    0  8.2791035944E+02 -2.6811350560E+02  9.6654168619E+02  1.3280913232E+03  2.6889276000E+02 0. 9.
       2    1    3    0  102    0  2.3998529994E+01  2.7218331640E+02  9.7463064326E+02  1.0122078279E+03  3.3000000000E-01 0. 9.
 1000022    1    4    0    0    0 -1.0558881304E+03 -8.9295071136E+01  3.0068211879E+02  1.1090149579E+03  1.2896157000E+02 0. 9.
       2    1    4    0  101    0  2.0397924100E+02  8.5225260341E+01 -3.7677808470E+01  2.2425566194E+02  3.3000000000E-01 0. 9.
 1000022    1    5    0    0    0  5.4463672944E+02 -1.7856105659E+02  6.0888928442E+02  8.4610310554E+02  1.2896157000E+02 0. 9.
      25    2    5    0    0    0  2.8327363000E+02 -8.9552449013E+01  3.5765240177E+02  4.8198821763E+02  1.2701893900E+02 0. 9.
       5    1   10    0  103    0  1.2914818547E+02 -7.1449454552E+01  2.5868793221E+02  2.9787038228E+02  4.8000000000E+00 0. 9.
      -5    1   10    0    0  103  1.5412544453E+02 -1.8102994461E+01  9.8964469558E+01  1.8411783535E+02  4.8000000000E+00 0. 9.
</event>
<event>
    12   226  1.000000E+00  2.734111E+02  7.860188E-03  1.086767E-01
      -1   -1    0    0    0  101  0.0000000000E+00  0.0000000000E+00  3.2798103473E+02  3.2798103473E+02  0.0000000000E+00 0. 9.
       1   -1    0    0  101    0  0.0000000000E+00  0.0000000000E+00 -2.5319389036E+02  2.5319389036E+02  0.0000000000E+00 0. 9.
 1000024    2    1    2    0    0  2.4475371925E+01  4.2125690291E+01  1.2920166495E+02  3.0240157356E+02  2.6903535800E+02 0. 9.
-1000024    2    1    2    0    0 -2.4475371925E+01 -4.2125690291E+01 -5.4414520589E+01  2.7877335152E+02  2.6903535800E+02 0. 9.
 1000022    1    3    0    0    0 -3.5854603567E+01 -4.3237330983E+01  7.8609806118E+01  1.6113847319E+02  1.2896157000E+02 0. 9.
      24    2    3    0    0    0  6.0329975491E+01  8.5363021273E+01  5.0591858835E+01  1.4126310037E+02  8.0431188000E+01 0. 9.
 1000022    1    4    0    0    0  1.6985414442E+01  4.6797775673E+01  5.7606084711E+00  1.3835753416E+02  1.2896157000E+02 0. 9.
     -24    2    4    0    0    0 -4.1460786367E+01 -8.8923465963E+01 -6.0175129060E+01  1.4041581736E+02  8.0431188000E+01 0. 9.
      -1    1    6    0    0  102  2.4545029087E+01 -1.2564760083E+01  1.2253531801E+01  3.0175977041E+01  3.3000000000E-01 0. 9.
       2    1    6    0  102    0  3.5784946405E+01  9.7927781356E+01  3.8338327034E+01  1.1108712333E+02  3.3000000000E-01 0. 9.
       3    1    8    0  103    0 -5.9953227177E+01 -3.5292270310E+01 -2.6635093396E+01  7.4495717949E+01  5.0000000000E-01 0. 9.
      -4    1    8    0    0  103  1.8492440810E+01 -5.3631195654E+01 -3.3540035663E+01  6.5920099413E+01  1.5000000000E+00 0. 9.
</event>
<event>
    12   230  1.000000E+00  2.787115E+02  7.861896E-03  1.084007E-01
      -1   -1    0    0    0  101  0.0000000000E+00  0.0000000000E+00  1.2378048530E+02  1.2378048530E+02  0.0000000000E+00 0. 9.
       2   -1    0    0  101    0  0.0000000000E+00  0.0000000000E+00 -6.8083026682E+02  6.8083026682E+02  0.0000000000E+00 0. 9.
 1000023    2    1    2    0    0 -9.8729168109E-01  7.3057724480E+01 -3.9099090830E+02  4.8012041469E+02  2.6889276000E+02 0. 9.
 1000024    2    1    2    0    0  9.8729168109E-01 -7.3057724480E+01 -1.6605887322E+02  3.2449033742E+02  2.6903535800E+02 0. 9.
 1000022    1    3    0    0    0  5.0918961910E-01  5.3437308410E+01 -1.3769553359E+02  1.9607894255E+02  1.2896157000E+02 0. 9.
      25    2    3    0    0    0 -1.4964813002E+00  1.9620416070E+01 -2.5329537471E+02  2.8404147214E+02  1.2701893900E+02 0. 9.
 1000022    1    4    0    0    0  1.8300308681E+01 -6.1002259269E+01 -1.8968250297E+02  2.3804771665E+02  1.2896157000E+02 0. 9.
      24    2    4    0    0    0 -1.7313017000E+01 -1.2055465211E+01  2.3623629755E+01  8.6442620767E+01  8.0431188000E+01 0. 9.
       5    1    6    0  102    0 -1.1446184516E+01  3.5419419588E+01 -2.6070188038E+02  2.6338956103E+02  4.8000000000E+00 0. 9.
      -5    1    6    0    0  102  9.9497032155E+00 -1.5799003518E+01  7.4065056754E+00  2.0651911112E+01  4.8000000000E+00 0. 9.
      -3    1    8    0    0  103  2.4474685558E+01  1.7470169402E+01  1.9497283195E-02  3.0074365035E+01  5.0000000000E-01 0. 9.
       4    1    8    0  103    0 -4.1787702559E+01 -2.9525634613E+01  2.3604132472E+01  5.6368255731E+01  1.5000000000E+00 0. 9.
</event>
<event>
    21   258  1.000000E+00  9.622635E+02  7.973725E-03  9.313603E-02
      21   -1    0    0  101  102  0.0000000000E+00  0.0000000000E+00  9.9062521336E+02  9.9062521336E+02  0.0000000000E+00 0. 9.
       2   -1    0    0  102    0  0.0000000000E+00  0.0000000000E+00 -9.3714553818E+02  9.3714553818E+02  0.0000000000E+00 0. 9.
 1000021    2    1    2  101  103 -6.0502846288E+01 -2.3791827740E+02 -5.3215158614E+01  9.0076818423E+02  8.6503512500E+02 0. 9.
 1000002    2    1    2  103    0  6.0502846288E+01  2.3791827740E+02  1.0669483380E+02  1.0270025673E+03  9.9150632100E+02 0. 9.
 1000024    2    3    0    0    0 -6.3807408254E+01 -5.0769720602E+01  9.4181260107E+01  2.9647779594E+02  2.6903535800E+02 0. 9.
      -6    2    3    0    0  103  1.2033636885E+02 -4.3979543417E+01 -2.9663676217E+02  3.6661512595E+02  1.7320000000E+02 0. 9.
       5    1    3    0  101    0 -1.1703180688E+02 -1.4316901338E+02  1.4924034344E+02  2.3767526234E+02  4.8000000000E+00 0. 9.
 1000023    2    4    0    0    0 -3.0904904931E+02 -1.2679950470E+01 -2.2798344584E+02  4.6899026000E+02  2.6889276000E+02 0. 9.
       2    1    4    0  103    0  3.6955189560E+02  2.5059822787E+02  3.3467827964E+02  5.5801230731E+02  3.3000000000E-01 0. 9.
 1000022    1    5    0    0    0 -6.5631320250E+01 -1.0951854036E+02  5.8804109930E+01  1.9076370400E+02  1.2896157000E+02 0. 9.
      24    2    5    0    0    0  1.8239119963E+00  5.8748819762E+01  3.5377150178E+01  1.0571409195E+02  8.0431188000E+01 0. 9.
     -24    2    6    0    0    0  4.2792055936E+01  3.2218317903E+01 -1.9537429993E+02  2.1796667896E+02  8.0431188000E+01 0. 9.
      -5    1    6    0    0  103  7.7544312914E+01 -7.6197861320E+01 -1.0126246224E+02  1.4864844699E+02  4.8000000000E+00 0. 9.
 1000022    1    8    0    0    0 -1.9504577315E+02 -3.8169763135E+01 -1.2218509941E+02  2.6657094646E+02  1.2896157000E+02 0. 9.
      25    2    8    0    0    0 -1.1400327616E+02  2.5489812666E+01 -1.0579834643E+02  2.0241931354E+02  1.2701893900E+02 0. 9.
      -1    1   11    0    0  104  2.2783650554E+01  6.1990692142E+00 -1.6616907036E+01  2.8874793352E+01  3.3000000000E-01 0. 9.
       2    1   11    0  104    0 -2.0959738558E+01  5.2549750548E+01  5.1994057213E+01  7.6839298595E+01  3.3000000000E-01 0. 9.
       3    1   12    0  105    0 -9.8465224607E+00 -4.8456129267E+00  1.2588521066E+00  1.1057516802E+01  5.0000000000E-01 0. 9.
      -4    1   12    0    0  105  5.2638578396E+01  3.7063930830E+01 -1.9663315204E+02  2.0690916216E+02  1.5000000000E+00 0. 9.
       5    1   15    0  106    0 -1.8550498860E+01  5.4751269243E+01 -8.0662972529E+01  9.9354806773E+01  4.8000000000E+00 0. 9.
      -5    1   15    0    0  106 -9.5452777298E+01 -2.9261456578E+01 -2.5135373896E+01  1.0306450677E+02  4.8000000000E+00 0. 9.
</event>
<event>
    12   230  1.000000E+00  3.452550E+02  7.880994E-03  1.054154E-01
      -1   -1    0    0    0  101  0.0000000000E+00  0.0000000000E+00  2.8195106533E+02  2.8195106533E+02  0.0000000000E+00 0. 9.
       2   -1    0    0  101    0  0.0000000000E+00  0.0000000000E+00 -4.6095965827E+02  4.6095965827E+02  0.0000000000E+00 0. 9.
 1000023    2    1    2    0    0  6.0717429475E+01 -2.0778057726E+02  1.7423299608E+01  3.4563891893E+02  2.6889276000E+02 0. 9.
 1000024    2    1    2    0    0 -6.0717429475E+01  2.0778057726E+02 -1.9643189255E+02  3.9727180468E+02  2.6903535800E+02 0. 9.
 1000022    1    3    0    0    0  3.3690182371E+01 -1.0296792390E+02 -3.2314781477E+01  1.7150146757E+02  1.2896157000E+02 0. 9.
      25    2    3    0    0    0  2.7027247104E+01 -1.0481265335E+02  4.9738081085E+01  1.7413745135E+02  1.2701893900E+02 0. 9.
 1000022    1    4    0    0    0  3.0876027020E+01  1.6272691081E+02 -1.5476549070E+02  2.6080034547E+02  1.2896157000E+02 0. 9.
      24    2    4    0    0    0 -9.1593456495E+01  4.5053666445E+01 -4.1666401847E+01  1.3647145921E+02  8.0431188000E+01 0. 9.
     -15    1    6    0    0    0 -1.6422451073E+01  1.8523037880E+01  3.4465196804E+01  4.2471253234E+01  1.7770000000E+00 0. 9.
      15    1    6    0    0    0  4.3449698177E+01 -1.2333569123E+02  1.5272884282E+01  1.3166619812E+02  1.7770000000E+00 0. 9.
     -11    1    8    0    0    0 -3.7499094174E+01 -1.8040974292E+01 -3.2613696556E+01  5.2870710422E+01  5.1000000000E-04 0. 9.
      12    1    8    0    0    0 -5.4094362321E+01  6.3094640737E+01 -9.0527052908E+00  8.3600748787E+01  0.0000000000E+00 0. 9.
</event>
<event>
    12   226  1.000000E+00  2.929731E+02  7.866339E-03  1.076899E-01
      -4   -1    0    0    0  101  0.0000000000E+00  0.0000000000E+00  4.6078730524E+02  4.6078730524E+02  0.0000000000E+00 0. 9.
       4   -1    0    0  101    0  0.0000000000E+00  0.0000000000E+00 -2.3944115454E+02  2.3944115454E+02  0.0000000000E+00 0. 9.
-1000024    2    1    2    0    0  1.0647397943E+02  4.6005180645E+01 -5.4305486621E+01  2.9796357944E+02  2.6903535800E+02 0. 9.
 1000024    2    1    2    0    0 -1.0647397943E+02 -4.6005180645E+01  2.7565163732E+02  4.0226488034E+02  2.6903535800E+02 0. 9.
 1000022    1    3    0    0    0  8.7360890722E+01  6.7743241632E+01 -1.0392028901E+02  1.9912705748E+02  1.2896157000E+02 0. 9.
     -24    2    3    0    0    0  1.9113088711E+01 -2.1738060988E+01  4.9614802386E+01  9.8836521967E+01  8.0431188000E+01 0. 9.
 1000022    1    4    0    0    0  1.4876579065E+01  1.9835230653E+01  1.0195251803E+02  1.6625327500E+02  1.2896157000E+02 0. 9.
      24    2    4    0    0    0 -1.2135055850E+02 -6.5840411297E+01  1.7369911929E+02  2.3601160534E+02  8.0431188000E+01 0. 9.
      13    1    6    0    0    0  1.2181665978E+01 -3.9170077476E+01 -4.7794719035E+00  4.1298213898E+01  1.0566000000E-01 0. 9.
     -14    1    6    0    0    0  6.9314227339E+00  1.7432016488E+01  5.4394274289E+01  5.7538308069E+01  0.0000000000E+00 0. 9.
     -11    1    8    0    0    0 -7.6025066959E+01 -7.4881521746E+01  8.6675877293E+01  1.3747640092E+02  5.1000000000E-04 0. 9.
      12    1    8    0    0    0 -4.5325491540E+01  9.0411104484E+00  8.7023242000E+01  9.8535204418E+01  0.0000000000E+00 0. 9.
</event>
<event>
    20   259  1.000000E+00  9.357180E+02  7.971165E-03  9.343306E-02
       1   -1    0    0  101    0  0.0000000000E+00  0.0000000000E+00  1.6652770327E+03  1.6652770327E+03  0.0000000000E+00 0. 9.
      21   -1    0    0  102  101  0.0000000000E+00  0.0000000000E+00 -6.1451915617E+02  6.1451915617E+02  0.0000000000E+00 0. 9.
 2000001    2    1    2  103    0  2.4208904269E+01 -9.5390376482E+01  9.9365849149E+02  1.4073103711E+03  9.9170554500E+02 0. 9.
 1000021    2    1    2  102  103 -2.4208904269E+01  9.5390376482E+01  5.7099385085E+01  8.7248581778E+02  8.6503512500E+02 0. 9.
 1000021    2    3    0  103  104  4.2757636865E+01  1.1696118465E+01  9.6118567860E+02  1.2938812507E+03  8.6503512500E+02 0. 9.
       1    1    3    0  104    0 -1.8548732596E+01 -1.0708649495E+02  3.2472812886E+01  1.1342912041E+02  3.3000000000E-01 0. 9.
 1000023    2    4    0    0    0 -5.2565299573E+01  1.2815786203E+02  2.5104906682E+01  3.0351461421E+02  2.6889276000E+02 0. 9.
       3    1    4    0  102    0  9.7053369715E+01 -1.3181375502E+02 -2.2899879646E+02  2.8148698259E+02  5.0000000000E-01 0. 9.
      -3    1    4    0    0  103 -6.8696974411E+01  9.9046269476E+01  2.6099327486E+02  2.8748422098E+02  5.0000000000E-01 0. 9.
 1000024    2    5    0    0    0  1.8890169908E+02  2.2071798627E+02  1.5946682256E+02  4.2686060105E+02  2.6903535800E+02 0. 9.
      -2    1    5    0    0  104 -1.3417230772E+02 -1.4071180453E+02  7.6343407525E+02  7.8780309484E+02  3.3000000000E-01 0. 9.
       1    1    5    0  103    0 -1.1971754501E+01 -6.8310063276E+01  3.8284780794E+01  7.9217554816E+01  3.3000000000E-01 0. 9.
 1000022    1    7    0    0    0 -2.1699299401E+01  4.1792098970E+00 -3.4987261274E+01  1.3543825301E+02  1.2896157000E+02 0. 9.
      23    2    7    0    0    0 -3.0866000172E+01  1.2397865213E+02  6.0092167956E+01  1.6807636120E+02  9.1187600000E+01 0. 9.
 1000022    1   10    0    0    0  3.2353084526E+01  3.0868852393E+01  6.6104006527E+01  1.5165894086E+02  1.2896157000E+02 0. 9.
      24    2   10    0    0    0  1.5654861456E+02  1.8984913387E+02  9.3362816033E+01  2.7520166019E+02  8.0431188000E+01 0. 9.
      12    1   14    0    0    0  2.6716615551E+01  7.8619086016E+01  2.4395024807E+01  8.6543951076E+01  0.0000000000E+00 0. 9.
     -12    1   14    0    0    0 -5.7582615723E+01  4.5359566117E+01  3.5697143149E+01  8.1532410125E+01  0.0000000000E+00 0. 9.
     -15    1   16    0    0    0  4.3152980799E+01  1.1373603131E+02  3.4277067097E+01  1.2639675482E+02  1.7770000000E+00 0. 9.
      16    1   16    0    0    0  1.1339563376E+02  7.6113102563E+01  5.9085748936E+01  1.4880490538E+02  0.0000000000E+00 0. 9.
</event>
<event>
    21   258  1.000000E+00  1.050154E+03  7.981733E-03  9.222002E-02
      21   -1    0    0  101  102  0.0000000000E+00  0.0000000000E+00  7.1686895333E+02  7.1686895333E+02  0.0000000000E+00 0. 9.
       2   -1    0    0  102    0  0.0000000000E+00  0.0000000000E+00 -1.5988544295E+03  1.5988544295E+03  0.0000000000E+00 0. 9.
 1000021    2    1    2  101  103 -6.3115036733E+01  4.8286165796E+02 -1.8556504023E+02  1.0098807059E+03  8.6503512500E+02 0. 9.
 1000002    2    1    2  103    0  6.3115036733E+01 -4.8286165796E+02 -6.9642043593E+02  1.3058426769E+03  9.9150632100E+02 0. 9.
 1000024    2    3    0    0    0 -8.3875264794E+01  6.2178547648E+02 -9.2461290084E+01  6.8889865207E+02  2.6903535800E+02 0. 9.
      -6    2    3    0    0  103  5.1016421935E+01 -1.7846103376E+02 -9.4656814753E+01  2.7094126385E+02  1.7320000000E+02 0. 9.
       5    1    3    0  101    0 -3.0256193874E+01  3.9537215229E+01  1.5530646110E+00  5.0040790017E+01  4.8000000000E+00 0. 9.
 1000023    2    4    0    0    0  1.4435821458E+02 -5.6915956705E+01  1.5750786267E+02  3.4812463778E+02  2.6889276000E+02 0. 9.
       2    1    4    0  103    0 -8.1243177846E+01 -4.2594570125E+02 -8.5392829860E+02  9.5771803910E+02  3.3000000000E-01 0. 9.
 1000022    1    5    0    0    0 -4.5789263173E+01  5.4511096732E+02 -1.0136358307E+02  5.7109393783E+02  1.2896157000E+02 0. 9.
      24    2    5    0    0    0 -3.8086001621E+01  7.6674509162E+01  8.9022929835E+00  1.1780471424E+02  8.0431188000E+01 0. 9.
     -24    2    6    0    0    0 -3.4452872055E+01 -5.5035616352E+01 -3.2203560699E+01  1.0826894654E+02  8.0431188000E+01 0. 9.
      -5    1    6    0    0  103  8.5469293990E+01 -1.2342541740E+02 -6.2453254054E+01  1.6267231731E+02  4.8000000000E+00 0. 9.
 1000022    1    8    0    0    0  1.0825867665E+02 -5.6650747983E+01  1.0227715131E+02  2.0499012301E+02  1.2896157000E+02 0. 9.
      25    2    8    0    0    0  3.6099537934E+01 -2.6520872269E-01  5.5230711361E+01  1.4313451476E+02  1.2701893900E+02 0. 9.
      -1    1   11    0    0  104  1.6688681921E+01  4.2180549097E+01 -1.6494723750E+01  4.8268992511E+01  3.3000000000E-01 0. 9.
       2    1   11    0  104    0 -5.4774683542E+01  3.4493960065E+01  2.5397016734E+01  6.9535721734E+01  3.3000000000E-01 0. 9.
       1    1   12    0  105    0  3.2431923797E+00  1.3678907348E+01  1.1824820649E+01  1.8372971628E+01  3.3000000000E-01 0. 9.
      -2    1   12    0    0  105 -3.7696064434E+01 -6.8714523700E+01 -4.4028381349E+01  8.9895974912E+01  3.3000000000E-01 0. 9.
     -15    1   15    0    0    0 -1.1031451574E+01 -4.1105537916E+01  6.7242524214E+01  7.9599453282E+01  1.7770000000E+00 0. 9.
      15    1   15    0    0    0  4.7130989508E+01  4.0840329193E+01 -1.2011812853E+01  6.3535061482E+01  1.7770000000E+00 0. 9.
</event>
<event>
     8   272  1.000000E+00  1.112596E+03  7.987034E-03  9.162452E-02
       2   -1    0    0  101    0  0.0000000000E+00  0.0000000000E+00  1.0515586094E+03  1.0515586094E+03  0.0000000000E+00 0. 9.
       2   -1    0    0  102    0  0.0000000000E+00  0.0000000000E+00 -1.4101897189E+03  1.4101897189E+03  0.0000000000E+00 0. 9.
 2000002    2    1    2  101    0  2.5588501595E+02 -4.3556805781E+02 -6.7965492315E+02  1.3037643377E+03  9.9129912700E+02 0. 9.
 2000002    2    1    2  102    0 -2.5588501595E+02  4.3556805781E+02  3.2102381364E+02  1.1579839906E+03  9.9129912700E+02 0. 9.
 1000022    1    3    0    0    0 -2.8561120947E+02  8.5934868660E+01 -6.2041718713E+01  3.3081539569E+02  1.2896157000E+02 0. 9.
       2    1    3    0  101    0  5.4149622543E+02 -5.2150292647E+02 -6.1761320444E+02  9.7294894196E+02  3.3000000000E-01 0. 9.
 1000022    1    4    0    0    0 -2.6116819130E+02  2.3486524766E+02  6.6307602941E+02  7.6136155407E+02  1.2896157000E+02 0. 9.
       2    1    4    0  102    0  5.2831753479E+00  2.0070281016E+02 -3.4205221577E+02  3.9662243653E+02  3.3000000000E-01 0. 9.
</event>
<event>
    12   230  1.000000E+00  3.055642E+02  7.870089E-03  1.070977E-01
      -1   -1    0    0    0  101  0.0000000000E+00  0.0000000000E+00  2.5124307066E+02  2.5124307066E+02  0.0000000000E+00 0. 9.
       2   -1    0    0  101    0  0.0000000000E+00  0.0000000000E+00 -3.8503723236E+02  3.8503723236E+02  0.0000000000E+00 0. 9.
 1000023    2    1    2    0    0  1.4487409665E+02  6.2708957953E+00 -1.2624938736E+02  3.3056020965E+02  2.6889276000E+02 0. 9.
 1000024    2    1    2    0    0 -1.4487409665E+02 -6.2708957953E+00 -7.5447743389E+00  3.0572009337E+02  2.6903535800E+02 0. 9.
 1000022    1    3    0    0    0  4.1558660090E+01 -2.4143998430E+01 -4.1770014212E+01  1.4382585134E+02  1.2896157000E+02 0. 9.
      25    2    3    0    0    0  1.0331543656E+02  3.0414894225E+01 -8.4479373145E+01  1.8673435831E+02  1.2701893900E+02 0. 9.
 1000022    1    4    0    0    0 -8.5423582264E+01 -8.3657620339E+01 -2.6503866863E+01  1.7784635881E+02  1.2896157000E+02 0. 9.
      24    2    4    0    0    0 -5.9450514385E+01  7.7386724543E+01  1.8959092524E+01  1.2787373455E+02  8.0431188000E+01 0. 9.
       5    1    6    0  102    0  1.1082748503E+02  6.2375856333E+01 -4.4595525408E+01  1.3485280782E+02  4.8000000000E+00 0. 9.
      -5    1    6    0    0  102 -7.5120484675E+00 -3.1960962108E+01 -3.9883847737E+01  5.1881550491E+01  4.8000000000E+00 0. 9.
      -1    1    8    0    0  103  1.9901820440E+00 -8.5503681968E+00 -1.4591449279E+01  1.7031996739E+01  3.3000000000E-01 0. 9.
       2    1    8    0  103    0 -6.1440696429E+01  8.5937092740E+01  3.3550541803E+01  1.1084173781E+02  3.3000000000E-01 0. 9.
</event>
<event>
    12   226  1.000000E+00  3.286826E+02  7.876598E-03  1.060866E-01
       1   -1    0    0  101    0  0.0000000000E+00  0.0000000000E+00  3.9537153363E+02  3.9537153363E+02  0.0000000000E+00 0. 9.
      -1   -1    0    0    0  101  0.0000000000E+00  0.0000000000E+00 -2.8450974239E+02  2.8450974239E+02  0.0000000000E+00 0. 9.
-1000024    2    1    2    0    0  3.9061633063E+01 -1.8473343969E+02 -1.2218617207E+01  3.2890967359E+02  2.6903535800E+02 0. 9.
 1000024    2    1    2    0    0 -3.9061633063E+01  1.8473343969E+02  1.2308040845E+02  3.5097160243E+02  2.6903535800E+02 0. 9.
 1000022    1    3    0    0    0 -2.9759224399E+01 -2.1680513169E+01  1.6340186299E-01  1.3411476177E+02  1.2896157000E+02 0. 9.
     -24    2    3    0    0    0  6.8820857462E+01 -1.6305292652E+02 -1.2382019070E+01  1.9479491181E+02  8.0431188000E+01 0. 9.
 1000022    1    4    0    0    0  2.2039895606E+01  7.3814682691E+01 -9.8381813816E+00  1.5053983104E+02  1.2896157000E+02 0. 9.
      24    2    4    0    0    0 -6.1101528669E+01  1.1091875700E+02  1.3291858983E+02  2.0043177140E+02  8.0431188000E+01 0. 9.
       1    1    6    0  102    0  2.3314142141E+01  1.6326739185E+00 -4.1499457394E+00  2.3739119561E+01  3.3000000000E-01 0. 9.
      -2    1    6    0    0  102  4.5506715321E+01 -1.6468560044E+02 -8.2320733305E+00  1.7105579225E+02  3.3000000000E-01 0. 9.
      -1    1    8    0    0  103  4.1925770346E-01  1.9639121364E+01  7.1979693084E+01  7.4612706568E+01  3.3000000000E-01 0. 9.
       2    1    8    0  103    0 -6.1520786373E+01  9.1279635638E+01  6.0938896744E+01  1.2581906483E+02  3.3000000000E-01 0. 9.
</event>
<event>
    15   272  1.000000E+00  1.042087E+03  7.981026E-03  9.230012E-02
       2   -1    0    0  101    0  0.0000000000E+00  0.0000000000E+00  9.6038164214E+02  9.6038164214E+02  0.0000000000E+00 0. 9.
       2   -1    0    0  102    0  0.0000000000E+00  0.0000000000E+00 -1.3042377572E+03  1.3042377572E+03  0.0000000000E+00 0. 9.
 2000002    2    1    2  102    0  3.1960994508E+02  3.3479677446E+01  2.4105221797E+02  1.0696034484E+03  9.9129912700E+02 0. 9.
 2000002    2    1    2  101    0 -3.1960994508E+02 -3.3479677446E+01 -5.8490833302E+02  1.1950159509E+03  9.9129912700E+02 0. 9.
 1000022    1    3    0    0    0  2.4198789400E+02 -4.6026707414E+02  1.8435026953E+02  5.6658629422E+02  1.2896157000E+02 0. 9.
       2    1    3    0  102    0  7.7622051079E+01  4.9374675159E+02  5.6701948438E+01  5.0301715416E+02  3.3000000000E-01 0. 9.
 1000021    2    4    0  101  103 -3.1156637238E+02  4.1013154254E+01 -4.1553002044E+02  1.0098052528E+03  8.6503512500E+02 0. 9.
       2    1    4    0  103    0 -8.0435727003E+00 -7.4492831700E+01 -1.6937831257E+02  1.8521069814E+02  3.3000000000E-01 0. 9.
 1000024    2    7    0    0    0 -1.3370938790E+02  2.7728858565E+01  1.0242117993E+02  3.1861765796E+02  2.6903535800E+02 0. 9.
      -4    1    7    0    0  103  7.4302942034E+01  1.2977716423E+02 -3.1004608779E+02  3.4422938007E+02  1.5000000000E+00 0. 9.
       3    1    7    0  101    0 -2.5215992652E+02 -1.1649286855E+02 -2.0790511259E+02  3.4695821478E+02  5.0000000000E-01 0. 9.
 1000022    1    9    0    0    0 -1.0492540390E+02  2.4476572229E+01  1.4604667993E+02  2.2264133090E+02  1.2896157000E+02 0. 9.
      24    2    9    0    0    0 -2.8783983996E+01  3.2522863363E+00 -4.3625499999E+01  9.5976327052E+01  8.0431188000E+01 0. 9.
     -15    1   13    0    0    0  1.3378306399E+01 -4.5454209360E+00 -5.0573050789E+01  5.2539805184E+01  1.7770000000E+00 0. 9.
      16    1   13    0    0    0 -4.2162290394E+01  7.7977072723E+00  6.9475507906E+00  4.3436521868E+01  0.0000000000E+00 0. 9.
</event>
</LesHouchesEvents>
